 Entering Gaussian System, Link 0=g09
 Initial command:
 /soft/g09.c01/g09/l1.exe /scr/macias/389609.qcexmaster_vib5_0.10/Gau-9928.inp -scrdir=/scr/macias/389609.qcexmaster_vib5_0.10/
 Entering Link 1 = /soft/g09.c01/g09/l1.exe PID=      9935.
  
 Copyright (c) 1988,1990,1992,1993,1995,1998,2003,2009,2011,
            Gaussian, Inc.  All Rights Reserved.
  
 This is part of the Gaussian(R) 09 program.  It is based on
 the Gaussian(R) 03 system (copyright 2003, Gaussian, Inc.),
 the Gaussian(R) 98 system (copyright 1998, Gaussian, Inc.),
 the Gaussian(R) 94 system (copyright 1995, Gaussian, Inc.),
 the Gaussian 92(TM) system (copyright 1992, Gaussian, Inc.),
 the Gaussian 90(TM) system (copyright 1990, Gaussian, Inc.),
 the Gaussian 88(TM) system (copyright 1988, Gaussian, Inc.),
 the Gaussian 86(TM) system (copyright 1986, Carnegie Mellon
 University), and the Gaussian 82(TM) system (copyright 1983,
 Carnegie Mellon University). Gaussian is a federally registered
 trademark of Gaussian, Inc.
  
 This software contains proprietary and confidential information,
 including trade secrets, belonging to Gaussian, Inc.
  
 This software is provided under written license and may be
 used, copied, transmitted, or stored only in accord with that
 written license.
  
 The following legend is applicable only to US Government
 contracts under FAR:
  
                    RESTRICTED RIGHTS LEGEND
  
 Use, reproduction and disclosure by the US Government is
 subject to restrictions as set forth in subparagraphs (a)
 and (c) of the Commercial Computer Software - Restricted
 Rights clause in FAR 52.227-19.
  
 Gaussian, Inc.
 340 Quinnipiac St., Bldg. 40, Wallingford CT 06492
  
  
 ---------------------------------------------------------------
 Warning -- This program may not be used in any manner that
 competes with the business of Gaussian, Inc. or will provide
 assistance to any competitor of Gaussian, Inc.  The licensee
 of this program is prohibited from giving any competitor of
 Gaussian, Inc. access to this program.  By using this program,
 the user acknowledges that Gaussian, Inc. is engaged in the
 business of creating and licensing software in the field of
 computational chemistry and represents and warrants to the
 licensee that it is not a competitor of Gaussian, Inc. and that
 it will not use this program in any manner prohibited above.
 ---------------------------------------------------------------
  

 Cite this work as:
 Gaussian 09, Revision C.01,
 M. J. Frisch, G. W. Trucks, H. B. Schlegel, G. E. Scuseria, 
 M. A. Robb, J. R. Cheeseman, G. Scalmani, V. Barone, B. Mennucci, 
 G. A. Petersson, H. Nakatsuji, M. Caricato, X. Li, H. P. Hratchian, 
 A. F. Izmaylov, J. Bloino, G. Zheng, J. L. Sonnenberg, M. Hada, 
 M. Ehara, K. Toyota, R. Fukuda, J. Hasegawa, M. Ishida, T. Nakajima, 
 Y. Honda, O. Kitao, H. Nakai, T. Vreven, J. A. Montgomery, Jr., 
 J. E. Peralta, F. Ogliaro, M. Bearpark, J. J. Heyd, E. Brothers, 
 K. N. Kudin, V. N. Staroverov, T. Keith, R. Kobayashi, J. Normand, 
 K. Raghavachari, A. Rendell, J. C. Burant, S. S. Iyengar, J. Tomasi, 
 M. Cossi, N. Rega, J. M. Millam, M. Klene, J. E. Knox, J. B. Cross, 
 V. Bakken, C. Adamo, J. Jaramillo, R. Gomperts, R. E. Stratmann, 
 O. Yazyev, A. J. Austin, R. Cammi, C. Pomelli, J. W. Ochterski, 
 R. L. Martin, K. Morokuma, V. G. Zakrzewski, G. A. Voth, 
 P. Salvador, J. J. Dannenberg, S. Dapprich, A. D. Daniels, 
 O. Farkas, J. B. Foresman, J. V. Ortiz, J. Cioslowski, 
 and D. J. Fox, Gaussian, Inc., Wallingford CT, 2010.
 
  
 -----  Compilado por  -----------------------------------------
  
  Servicio de Calculo | Servicio de Informatica U. de Valencia
     calculo@uv.es    |  E-46100 Burjassot (Valencia) SPAIN
  
 ---------------------------------------------------------------
  
 ******************************************
 Gaussian 09:  EM64L-G09RevC.01 23-Sep-2011
                21-Aug-2020 
 ******************************************
 %chk=opt_freq.chk
 %nproc=6
 Will use up to    6 processors via shared memory.
 %mem=20GB
 Default route:  CacheSize=131072
 -----------------------
 #sp wB97XD/6-311+G(3df)
 -----------------------
 1/4=131072,38=1/1;
 2/4=131072,12=2,17=6,18=5,40=1/2;
 3/4=131072,5=4,6=6,7=16,11=2,16=1,25=1,30=1,74=-58/1,2,3;
 4/4=131072/1;
 5/4=131072,5=2,38=5/2;
 6/4=131072,7=2,8=2,9=2,10=2,28=1/1;
 99/4=131072,5=1,9=1/99;
 ---------------------
 Optimizacion del hoso
 ---------------------
 Charge =  0 Multiplicity = 2
 Symbolic Z-Matrix:
 S                    -0.15884  -0.45101   0.01631 
 O                     1.31513   0.25247  -0.04704 
 O                    -1.14464   0.50344  -0.01904 
 H                     1.15252   1.15585   0.27068 
 
                          Input orientation:                          
 ---------------------------------------------------------------------
 Center     Atomic      Atomic             Coordinates (Angstroms)
 Number     Number       Type             X           Y           Z
 ---------------------------------------------------------------------
      1         16           0       -0.158843   -0.451008    0.016308
      2          8           0        1.315132    0.252471   -0.047040
      3          8           0       -1.144636    0.503438   -0.019037
      4          1           0        1.152521    1.155845    0.270681
 ---------------------------------------------------------------------
                    Distance matrix (angstroms):
                    1          2          3          4
     1  S    0.000000
     2  O    1.634472   0.000000
     3  O    1.372590   2.472696   0.000000
     4  H    2.089583   0.971326   2.405515   0.000000
 Stoichiometry    HO2S(2)
 Framework group  C1[X(HO2S)]
 Deg. of freedom     6
 Full point group                 C1      NOp   1
 Largest Abelian subgroup         C1      NOp   1
 Largest concise Abelian subgroup C1      NOp   1
                         Standard orientation:                         
 ---------------------------------------------------------------------
 Center     Atomic      Atomic             Coordinates (Angstroms)
 Number     Number       Type             X           Y           Z
 ---------------------------------------------------------------------
      1         16           0       -0.170533   -0.446004    0.017475
      2          8           0        1.322474    0.216172   -0.045382
      3          8           0       -1.129451    0.535234   -0.023175
      4          1           0        1.184335    1.124823    0.268856
 ---------------------------------------------------------------------
 Rotational constants (GHZ):     38.8178841      9.9360094      7.9392374
 Standard basis: 6-311+G(3df) (5D, 7F)
 There are   128 symmetry adapted basis functions of A   symmetry.
 Integral buffers will be    131072 words long.
 Raffenetti 2 integral format.
 Two-electron integral symmetry is turned on.
   128 basis functions,   193 primitive gaussians,   146 cartesian basis functions
    17 alpha electrons       16 beta electrons
       nuclear repulsion energy       114.6561174939 Hartrees.
 NAtoms=    4 NActive=    4 NUniq=    4 SFac= 1.00D+00 NAtFMM=   60 NAOKFM=F Big=F
 Nuclear repulsion after empirical dispersion term =      114.6558953573 Hartrees.
 One-electron integrals computed using PRISM.
 NBasis=   128 RedAO= T  NBF=   128
 NBsUse=   128 1.00D-06 NBFU=   128
 Harris functional with IExCor= 4639 diagonalized for initial guess.
 ExpMin= 4.05D-02 ExpMax= 9.34D+04 ExpMxC= 3.17D+03 IAcc=2 IRadAn=         4 AccDes= 0.00D+00
 HarFok:  IExCor= 4639 AccDes= 0.00D+00 IRadAn=         4 IDoV= 1
 ScaDFX=  1.000000  1.000000  1.000000  1.000000
 FoFCou: FMM=F IPFlag=           0 FMFlag=      100000 FMFlg1=           0
         NFxFlg=           0 DoJE=T BraDBF=F KetDBF=T FulRan=T
         Omega=  0.000000  0.000000  1.000000  0.000000  0.000000 ICntrl=     500 IOpCl=  0
         NMat0=    1 NMatS0=    1 NMatT0=    0 NMatD0=    1 NMtDS0=    0 NMtDT0=    0
         I1Cent=           4 NGrid=           0.
 Petite list used in FoFCou.
 Initial guess orbital symmetries:
 Alpha Orbitals:
       Occupied  (A) (A) (A) (A) (A) (A) (A) (A) (A) (A) (A) (A)
                 (A) (A) (A) (A) (A)
       Virtual   (A) (A) (A) (A) (A) (A) (A) (A) (A) (A) (A) (A)
                 (A) (A) (A) (A) (A) (A) (A) (A) (A) (A) (A) (A)
                 (A) (A) (A) (A) (A) (A) (A) (A) (A) (A) (A) (A)
                 (A) (A) (A) (A) (A) (A) (A) (A) (A) (A) (A) (A)
                 (A) (A) (A) (A) (A) (A) (A) (A) (A) (A) (A) (A)
                 (A) (A) (A) (A) (A) (A) (A) (A) (A) (A) (A) (A)
                 (A) (A) (A) (A) (A) (A) (A) (A) (A) (A) (A) (A)
                 (A) (A) (A) (A) (A) (A) (A) (A) (A) (A) (A) (A)
                 (A) (A) (A) (A) (A) (A) (A) (A) (A) (A) (A) (A)
                 (A) (A) (A)
 Beta  Orbitals:
       Occupied  (A) (A) (A) (A) (A) (A) (A) (A) (A) (A) (A) (A)
                 (A) (A) (A) (A)
       Virtual   (A) (A) (A) (A) (A) (A) (A) (A) (A) (A) (A) (A)
                 (A) (A) (A) (A) (A) (A) (A) (A) (A) (A) (A) (A)
                 (A) (A) (A) (A) (A) (A) (A) (A) (A) (A) (A) (A)
                 (A) (A) (A) (A) (A) (A) (A) (A) (A) (A) (A) (A)
                 (A) (A) (A) (A) (A) (A) (A) (A) (A) (A) (A) (A)
                 (A) (A) (A) (A) (A) (A) (A) (A) (A) (A) (A) (A)
                 (A) (A) (A) (A) (A) (A) (A) (A) (A) (A) (A) (A)
                 (A) (A) (A) (A) (A) (A) (A) (A) (A) (A) (A) (A)
                 (A) (A) (A) (A) (A) (A) (A) (A) (A) (A) (A) (A)
                 (A) (A) (A) (A)
 The electronic state of the initial guess is 2-A.
 Initial guess <Sx>= 0.0000 <Sy>= 0.0000 <Sz>= 0.5000 <S**2>= 0.7500 S= 0.5000
 Requested convergence on RMS density matrix=1.00D-08 within 128 cycles.
 Requested convergence on MAX density matrix=1.00D-06.
 Requested convergence on             energy=1.00D-06.
 No special actions if energy rises.
 FoFJK:  IHMeth= 1 ICntrl=     0 DoSepK=T KAlg= 1 I1Cent= 0 FoldK=F
 FoFJK:  IHMeth= 1 ICntrl=     0 DoSepK=T KAlg= 1 I1Cent= 0 FoldK=F
 FoFJK:  IHMeth= 1 ICntrl=     0 DoSepK=T KAlg= 1 I1Cent= 0 FoldK=F
 FoFJK:  IHMeth= 1 ICntrl=     0 DoSepK=T KAlg= 1 I1Cent= 0 FoldK=F
 FoFJK:  IHMeth= 1 ICntrl=     0 DoSepK=T KAlg= 1 I1Cent= 0 FoldK=F
 FoFJK:  IHMeth= 1 ICntrl=     0 DoSepK=T KAlg= 1 I1Cent= 0 FoldK=F
 FoFJK:  IHMeth= 1 ICntrl=     0 DoSepK=T KAlg= 1 I1Cent= 0 FoldK=F
 FoFJK:  IHMeth= 1 ICntrl=     0 DoSepK=T KAlg= 1 I1Cent= 0 FoldK=F
 FoFJK:  IHMeth= 1 ICntrl=     0 DoSepK=T KAlg= 1 I1Cent= 0 FoldK=F
 FoFJK:  IHMeth= 1 ICntrl=     0 DoSepK=T KAlg= 1 I1Cent= 0 FoldK=F
 FoFJK:  IHMeth= 1 ICntrl=     0 DoSepK=T KAlg= 1 I1Cent= 0 FoldK=F
 FoFJK:  IHMeth= 1 ICntrl=     0 DoSepK=T KAlg= 1 I1Cent= 0 FoldK=F
 FoFJK:  IHMeth= 1 ICntrl=     0 DoSepK=T KAlg= 1 I1Cent= 0 FoldK=F
 FoFJK:  IHMeth= 1 ICntrl=     0 DoSepK=T KAlg= 1 I1Cent= 0 FoldK=F
 FoFJK:  IHMeth= 1 ICntrl=     0 DoSepK=T KAlg= 1 I1Cent= 0 FoldK=F
 SCF Done:  E(UwB97XD) =  -549.210093707     A.U. after   15 cycles
             Convg  =    0.4359D-08             -V/T =  2.0010
 <Sx>= 0.0000 <Sy>= 0.0000 <Sz>= 0.5000 <S**2>= 0.7550 S= 0.5025
 <L.S>= 0.000000000000E+00
 Annihilation of the first spin contaminant:
 S**2 before annihilation     0.7550,   after     0.7500

 **********************************************************************

            Population analysis using the SCF density.

 **********************************************************************

 Orbital symmetries:
 Alpha Orbitals:
       Occupied  (A) (A) (A) (A) (A) (A) (A) (A) (A) (A) (A) (A)
                 (A) (A) (A) (A) (A)
       Virtual   (A) (A) (A) (A) (A) (A) (A) (A) (A) (A) (A) (A)
                 (A) (A) (A) (A) (A) (A) (A) (A) (A) (A) (A) (A)
                 (A) (A) (A) (A) (A) (A) (A) (A) (A) (A) (A) (A)
                 (A) (A) (A) (A) (A) (A) (A) (A) (A) (A) (A) (A)
                 (A) (A) (A) (A) (A) (A) (A) (A) (A) (A) (A) (A)
                 (A) (A) (A) (A) (A) (A) (A) (A) (A) (A) (A) (A)
                 (A) (A) (A) (A) (A) (A) (A) (A) (A) (A) (A) (A)
                 (A) (A) (A) (A) (A) (A) (A) (A) (A) (A) (A) (A)
                 (A) (A) (A) (A) (A) (A) (A) (A) (A) (A) (A) (A)
                 (A) (A) (A)
 Beta  Orbitals:
       Occupied  (A) (A) (A) (A) (A) (A) (A) (A) (A) (A) (A) (A)
                 (A) (A) (A) (A)
       Virtual   (A) (A) (A) (A) (A) (A) (A) (A) (A) (A) (A) (A)
                 (A) (A) (A) (A) (A) (A) (A) (A) (A) (A) (A) (A)
                 (A) (A) (A) (A) (A) (A) (A) (A) (A) (A) (A) (A)
                 (A) (A) (A) (A) (A) (A) (A) (A) (A) (A) (A) (A)
                 (A) (A) (A) (A) (A) (A) (A) (A) (A) (A) (A) (A)
                 (A) (A) (A) (A) (A) (A) (A) (A) (A) (A) (A) (A)
                 (A) (A) (A) (A) (A) (A) (A) (A) (A) (A) (A) (A)
                 (A) (A) (A) (A) (A) (A) (A) (A) (A) (A) (A) (A)
                 (A) (A) (A) (A) (A) (A) (A) (A) (A) (A) (A) (A)
                 (A) (A) (A) (A)
 The electronic state is 2-A.
 Alpha  occ. eigenvalues --  -89.13850 -19.31237 -19.28251  -8.16904  -6.11800
 Alpha  occ. eigenvalues --   -6.11585  -6.11224  -1.25282  -1.16480  -0.78385
 Alpha  occ. eigenvalues --   -0.62865  -0.58974  -0.58169  -0.51859  -0.47453
 Alpha  occ. eigenvalues --   -0.43146  -0.29679
 Alpha virt. eigenvalues --    0.05555   0.06931   0.08112   0.09325   0.12065
 Alpha virt. eigenvalues --    0.14337   0.19336   0.22406   0.24624   0.25154
 Alpha virt. eigenvalues --    0.26437   0.27933   0.30591   0.32360   0.32789
 Alpha virt. eigenvalues --    0.35493   0.36776   0.37966   0.40121   0.41373
 Alpha virt. eigenvalues --    0.41791   0.52417   0.57180   0.70788   0.79034
 Alpha virt. eigenvalues --    0.81398   0.87259   0.87668   0.93484   0.95000
 Alpha virt. eigenvalues --    0.96774   0.98326   0.99741   1.02839   1.05973
 Alpha virt. eigenvalues --    1.09230   1.10645   1.12082   1.15100   1.21677
 Alpha virt. eigenvalues --    1.23435   1.31392   1.37016   1.37685   1.41900
 Alpha virt. eigenvalues --    1.45154   1.66961   1.68503   1.78623   1.81849
 Alpha virt. eigenvalues --    1.92911   2.01219   2.08582   2.10274   2.11275
 Alpha virt. eigenvalues --    2.18178   2.32539   2.44619   2.49488   3.37731
 Alpha virt. eigenvalues --    3.42267   3.44556   3.48420   3.50480   3.57912
 Alpha virt. eigenvalues --    3.58573   3.64339   3.73284   3.77467   4.53820
 Alpha virt. eigenvalues --    4.64091   4.69621   4.71458   4.91840   4.99164
 Alpha virt. eigenvalues --    5.03237   5.03815   5.04347   5.06582   5.08383
 Alpha virt. eigenvalues --    5.11610   5.11923   5.18689   5.26505   5.29884
 Alpha virt. eigenvalues --    5.42355   5.47355   5.54647   5.58437   5.74854
 Alpha virt. eigenvalues --    5.89226   5.93545   6.02514   6.55853   8.90062
 Alpha virt. eigenvalues --   14.32794  14.35988  14.36982  14.39865  14.42150
 Alpha virt. eigenvalues --   14.46049  14.48902  14.50430  14.65220  14.72410
 Alpha virt. eigenvalues --   17.38393  17.64187  18.14238  50.03323  50.16681
 Alpha virt. eigenvalues --  190.00885
  Beta  occ. eigenvalues --  -89.13461 -19.30989 -19.27451  -8.16557  -6.11568
  Beta  occ. eigenvalues --   -6.11013  -6.10338  -1.23877  -1.15524  -0.76010
  Beta  occ. eigenvalues --   -0.61606  -0.58093  -0.54435  -0.50055  -0.44605
  Beta  occ. eigenvalues --   -0.41838
  Beta virt. eigenvalues --   -0.02567   0.05935   0.07390   0.08503   0.10066
  Beta virt. eigenvalues --    0.13151   0.15065   0.19718   0.22606   0.24970
  Beta virt. eigenvalues --    0.25359   0.26816   0.28331   0.30859   0.32603
  Beta virt. eigenvalues --    0.33967   0.35813   0.37188   0.38623   0.41213
  Beta virt. eigenvalues --    0.41858   0.43061   0.52888   0.57431   0.71337
  Beta virt. eigenvalues --    0.79602   0.81662   0.87655   0.88590   0.94125
  Beta virt. eigenvalues --    0.95389   0.98051   0.99034   1.00562   1.03468
  Beta virt. eigenvalues --    1.06693   1.10200   1.12424   1.12742   1.15398
  Beta virt. eigenvalues --    1.22765   1.24521   1.31841   1.37928   1.38589
  Beta virt. eigenvalues --    1.42447   1.45545   1.70246   1.70618   1.80276
  Beta virt. eigenvalues --    1.83511   1.93696   2.02654   2.09291   2.11731
  Beta virt. eigenvalues --    2.12795   2.18684   2.33008   2.45384   2.50174
  Beta virt. eigenvalues --    3.38664   3.43859   3.46580   3.49296   3.51499
  Beta virt. eigenvalues --    3.58646   3.60796   3.64962   3.73683   3.78457
  Beta virt. eigenvalues --    4.54379   4.64365   4.70538   4.71826   4.92480
  Beta virt. eigenvalues --    4.99723   5.03834   5.04767   5.05107   5.08126
  Beta virt. eigenvalues --    5.10146   5.12711   5.15255   5.19376   5.27456
  Beta virt. eigenvalues --    5.31114   5.43008   5.47896   5.55373   5.59225
  Beta virt. eigenvalues --    5.75135   5.90080   5.95146   6.03042   6.56241
  Beta virt. eigenvalues --    8.90414  14.34125  14.38457  14.40236  14.41148
  Beta virt. eigenvalues --   14.43869  14.47026  14.50663  14.52803  14.65868
  Beta virt. eigenvalues --   14.74176  17.39808  17.64486  18.14583  50.03550
  Beta virt. eigenvalues --   50.17372 190.01191
          Condensed to atoms (all electrons):
              1          2          3          4
     1  S   15.460800  -0.024439   0.062162   0.010916
     2  O   -0.024439   8.442231   0.008992   0.209711
     3  O    0.062162   0.008992   8.273626  -0.002046
     4  H    0.010916   0.209711  -0.002046   0.292751
 Mulliken atomic charges:
              1
     1  S    0.490561
     2  O   -0.636494
     3  O   -0.342734
     4  H    0.488667
 Sum of Mulliken atomic charges =   0.00000
 Mulliken charges with hydrogens summed into heavy atoms:
              1
     1  S    0.490561
     2  O   -0.147827
     3  O   -0.342734
 Sum of Mulliken charges with hydrogens summed into heavy atoms =   0.00000
          Atomic-Atomic Spin Densities.
              1          2          3          4
     1  S    1.031841  -0.110678  -0.230995  -0.001309
     2  O   -0.110678   0.151600   0.021468  -0.004596
     3  O   -0.230995   0.021468   0.461918  -0.000348
     4  H   -0.001309  -0.004596  -0.000348   0.007559
 Mulliken atomic spin densities:
              1
     1  S    0.688859
     2  O    0.057794
     3  O    0.252042
     4  H    0.001306
 Sum of Mulliken atomic spin densities =   1.00000
 Electronic spatial extent (au):  <R**2>=            171.7924
 Charge=              0.0000 electrons
 Dipole moment (field-independent basis, Debye):
    X=              0.7937    Y=              0.2509    Z=              0.5361  Tot=              0.9901
 Quadrupole moment (field-independent basis, Debye-Ang):
   XX=            -26.4079   YY=            -21.3726   ZZ=            -23.4535
   XY=              3.1429   XZ=              0.6562   YZ=              0.8571
 Traceless Quadrupole moment (field-independent basis, Debye-Ang):
   XX=             -2.6632   YY=              2.3721   ZZ=              0.2911
   XY=              3.1429   XZ=              0.6562   YZ=              0.8571
 Octapole moment (field-independent basis, Debye-Ang**2):
  XXX=             -0.3455  YYY=              5.1578  ZZZ=             -0.0646  XYY=              4.0442
  XXY=              0.7450  XXZ=              0.8010  XZZ=             -0.1857  YZZ=              1.3971
  YYZ=              0.9421  XYZ=              0.9825
 Hexadecapole moment (field-independent basis, Debye-Ang**3):
 XXXX=           -136.6866 YYYY=            -49.6553 ZZZZ=            -24.8996 XXXY=              5.3041
 XXXZ=              1.0213 YYYX=              4.9849 YYYZ=              1.2998 ZZZX=              0.3651
 ZZZY=              0.6246 XXYY=            -26.3581 XXZZ=            -26.0987 YYZZ=            -13.3969
 XXYZ=              1.3600 YYXZ=              1.1014 ZZXY=              0.3179
 N-N= 1.146558953573D+02 E-N=-2.291925757591D+03  KE= 8.215804067969D+02
                          Isotropic Fermi Contact Couplings
        Atom                 a.u.       MegaHertz       Gauss      10(-4) cm-1
     1  S(33)              0.10284      35.32198      12.60376      11.78214
     2  O(17)              0.02096     -12.70682      -4.53411      -4.23854
     3  O(17)              0.04893     -29.65828     -10.58281      -9.89294
     4  H(1)               0.00075       3.36400       1.20036       1.12211
 --------------------------------------------------------
       Center         ----  Spin Dipole Couplings  ----
                      3XX-RR        3YY-RR        3ZZ-RR
 --------------------------------------------------------
     1   Atom       -1.514873     -1.626664      3.141537
     2   Atom       -0.236913     -0.208317      0.445230
     3   Atom       -0.706114     -0.707685      1.413799
     4   Atom       -0.008175      0.020442     -0.012267
 --------------------------------------------------------
                        XY            XZ            YZ
 --------------------------------------------------------
     1   Atom       -0.012552     -0.024152      0.236321
     2   Atom        0.008632      0.010016     -0.111368
     3   Atom       -0.000954      0.075845      0.062068
     4   Atom        0.004202      0.001011      0.005148
 --------------------------------------------------------


 ---------------------------------------------------------------------------------
              Anisotropic Spin Dipole Couplings in Principal Axis System
 ---------------------------------------------------------------------------------

       Atom             a.u.   MegaHertz   Gauss  10(-4) cm-1        Axes

              Baa    -1.6394   -67.213   -23.983   -22.420  0.0908  0.9947 -0.0487
     1 S(33)  Bbb    -1.5140   -62.071   -22.149   -20.705  0.9959 -0.0905  0.0098
              Bcc     3.1534   129.285    46.132    43.125 -0.0053  0.0494  0.9988
 
              Baa    -0.2433    17.603     6.281     5.872  0.8515 -0.5155 -0.0958
     2 O(17)  Bbb    -0.2205    15.957     5.694     5.323  0.5242  0.8412  0.1328
              Bcc     0.4638   -33.559   -11.975   -11.194  0.0121 -0.1633  0.9865
 
              Baa    -0.7123    51.545    18.392    17.193  0.6678  0.7430 -0.0455
     3 O(17)  Bbb    -0.7060    51.084    18.228    17.040  0.7435 -0.6687 -0.0070
              Bcc     1.4183  -102.628   -36.620   -34.233  0.0357  0.0291  0.9989
 
              Baa    -0.0131    -6.983    -2.492    -2.329 -0.0822 -0.1412  0.9866
     4 H(1)   Bbb    -0.0088    -4.675    -1.668    -1.560  0.9864 -0.1526  0.0604
              Bcc     0.0219    11.658     4.160     3.889  0.1420  0.9782  0.1518
 

 ---------------------------------------------------------------------------------

 1\1\ CPUSERV-QCEXNOD16\SP\UwB97XD\6-311+G(3df)\H1O2S1(2)\ROOT\21-Aug-2
 020\0\\#sp wB97XD/6-311+G(3df)\\Optimizacion del hoso\\0,2\S,0,-0.1588
 43,-0.451008,0.016308\O,0,1.315132,0.252471,-0.04704\O,0,-1.144636,0.5
 03438,-0.019037\H,0,1.152521,1.155845,0.270681\\Version=EM64L-G09RevC.
 01\State=2-A\HF=-549.2100937\S2=0.754996\S2-1=0.\S2A=0.750017\RMSD=4.3
 59e-09\Dipole=0.3098496,0.1065915,0.2106644\Quadrupole=-2.1045936,1.88
 55064,0.2190872,2.2291194,0.4824583,0.6519062\PG=C01 [X(H1O2S1)]\\@


 DEMOCRATS BUY MOST OF THE BOOKS THAT HAVE BEEN
 BANNED; REPUBLICANS FORM CENSORSHIP COMMITTEES AND
 READ THEM AS A GROUP.
 Job cpu time:  0 days  0 hours  4 minutes 36.9 seconds.
 File lengths (MBytes):  RWF=     21 Int=      0 D2E=      0 Chk=      2 Scr=      1
 Normal termination of Gaussian 09 at Fri Aug 21 00:31:54 2020.
