 Entering Gaussian System, Link 0=g09
 Initial command:
 /soft/g09.c01/g09/l1.exe /scr/macias/389573.qcexmaster_vib1_0.10/Gau-2958.inp -scrdir=/scr/macias/389573.qcexmaster_vib1_0.10/
 Entering Link 1 = /soft/g09.c01/g09/l1.exe PID=      2965.
  
 Copyright (c) 1988,1990,1992,1993,1995,1998,2003,2009,2011,
            Gaussian, Inc.  All Rights Reserved.
  
 This is part of the Gaussian(R) 09 program.  It is based on
 the Gaussian(R) 03 system (copyright 2003, Gaussian, Inc.),
 the Gaussian(R) 98 system (copyright 1998, Gaussian, Inc.),
 the Gaussian(R) 94 system (copyright 1995, Gaussian, Inc.),
 the Gaussian 92(TM) system (copyright 1992, Gaussian, Inc.),
 the Gaussian 90(TM) system (copyright 1990, Gaussian, Inc.),
 the Gaussian 88(TM) system (copyright 1988, Gaussian, Inc.),
 the Gaussian 86(TM) system (copyright 1986, Carnegie Mellon
 University), and the Gaussian 82(TM) system (copyright 1983,
 Carnegie Mellon University). Gaussian is a federally registered
 trademark of Gaussian, Inc.
  
 This software contains proprietary and confidential information,
 including trade secrets, belonging to Gaussian, Inc.
  
 This software is provided under written license and may be
 used, copied, transmitted, or stored only in accord with that
 written license.
  
 The following legend is applicable only to US Government
 contracts under FAR:
  
                    RESTRICTED RIGHTS LEGEND
  
 Use, reproduction and disclosure by the US Government is
 subject to restrictions as set forth in subparagraphs (a)
 and (c) of the Commercial Computer Software - Restricted
 Rights clause in FAR 52.227-19.
  
 Gaussian, Inc.
 340 Quinnipiac St., Bldg. 40, Wallingford CT 06492
  
  
 ---------------------------------------------------------------
 Warning -- This program may not be used in any manner that
 competes with the business of Gaussian, Inc. or will provide
 assistance to any competitor of Gaussian, Inc.  The licensee
 of this program is prohibited from giving any competitor of
 Gaussian, Inc. access to this program.  By using this program,
 the user acknowledges that Gaussian, Inc. is engaged in the
 business of creating and licensing software in the field of
 computational chemistry and represents and warrants to the
 licensee that it is not a competitor of Gaussian, Inc. and that
 it will not use this program in any manner prohibited above.
 ---------------------------------------------------------------
  

 Cite this work as:
 Gaussian 09, Revision C.01,
 M. J. Frisch, G. W. Trucks, H. B. Schlegel, G. E. Scuseria, 
 M. A. Robb, J. R. Cheeseman, G. Scalmani, V. Barone, B. Mennucci, 
 G. A. Petersson, H. Nakatsuji, M. Caricato, X. Li, H. P. Hratchian, 
 A. F. Izmaylov, J. Bloino, G. Zheng, J. L. Sonnenberg, M. Hada, 
 M. Ehara, K. Toyota, R. Fukuda, J. Hasegawa, M. Ishida, T. Nakajima, 
 Y. Honda, O. Kitao, H. Nakai, T. Vreven, J. A. Montgomery, Jr., 
 J. E. Peralta, F. Ogliaro, M. Bearpark, J. J. Heyd, E. Brothers, 
 K. N. Kudin, V. N. Staroverov, T. Keith, R. Kobayashi, J. Normand, 
 K. Raghavachari, A. Rendell, J. C. Burant, S. S. Iyengar, J. Tomasi, 
 M. Cossi, N. Rega, J. M. Millam, M. Klene, J. E. Knox, J. B. Cross, 
 V. Bakken, C. Adamo, J. Jaramillo, R. Gomperts, R. E. Stratmann, 
 O. Yazyev, A. J. Austin, R. Cammi, C. Pomelli, J. W. Ochterski, 
 R. L. Martin, K. Morokuma, V. G. Zakrzewski, G. A. Voth, 
 P. Salvador, J. J. Dannenberg, S. Dapprich, A. D. Daniels, 
 O. Farkas, J. B. Foresman, J. V. Ortiz, J. Cioslowski, 
 and D. J. Fox, Gaussian, Inc., Wallingford CT, 2010.
 
  
 -----  Compilado por  -----------------------------------------
  
  Servicio de Calculo | Servicio de Informatica U. de Valencia
     calculo@uv.es    |  E-46100 Burjassot (Valencia) SPAIN
  
 ---------------------------------------------------------------
  
 ******************************************
 Gaussian 09:  EM64L-G09RevC.01 23-Sep-2011
                21-Aug-2025 
 ******************************************
 %chk=opt_freq.chk
 %nproc=6
 Will use up to    6 processors via shared memory.
 %mem=20GB
 Default route:  CacheSize=131072
 -----------------------
 #sp wB97XD/6-311+G(3df)
 -----------------------
 1/4=131072,38=1/1;
 2/4=131072,12=2,17=6,18=5,40=1/2;
 3/4=131072,5=4,6=6,7=16,11=2,16=1,25=1,30=1,74=-58/1,2,3;
 4/4=131072/1;
 5/4=131072,5=2,38=5/2;
 6/4=131072,7=2,8=2,9=2,10=2,28=1/1;
 99/4=131072,5=1,9=1/99;
 ---------------------
 Optimizacion del hoso
 ---------------------
 Charge =  0 Multiplicity = 2
 Symbolic Z-Matrix:
 S                    -0.13884  -0.47201   0.01931 
 O                     1.31013   0.25647  -0.05304 
 O                    -1.18864   0.54344  -0.02404 
 H                     1.25452   1.13885   0.34968 
 
                          Input orientation:                          
 ---------------------------------------------------------------------
 Center     Atomic      Atomic             Coordinates (Angstroms)
 Number     Number       Type             X           Y           Z
 ---------------------------------------------------------------------
      1         16           0       -0.138843   -0.472008    0.019308
      2          8           0        1.310132    0.256471   -0.053040
      3          8           0       -1.188636    0.543438   -0.024037
      4          1           0        1.254521    1.138845    0.349681
 ---------------------------------------------------------------------
                    Distance matrix (angstroms):
                    1          2          3          4
     1  S    0.000000
     2  O    1.623405   0.000000
     3  O    1.461189   2.515359   0.000000
     4  H    2.155332   0.971525   2.542281   0.000000
 Stoichiometry    HO2S(2)
 Framework group  C1[X(HO2S)]
 Deg. of freedom     6
 Full point group                 C1      NOp   1
 Largest Abelian subgroup         C1      NOp   1
 Largest concise Abelian subgroup C1      NOp   1
                         Standard orientation:                         
 ---------------------------------------------------------------------
 Center     Atomic      Atomic             Coordinates (Angstroms)
 Number     Number       Type             X           Y           Z
 ---------------------------------------------------------------------
      1         16           0       -0.138895   -0.471498    0.020819
      2          8           0        1.309809    0.256742   -0.058985
      3          8           0       -1.188909    0.543608   -0.025069
      4          1           0        1.255129    1.141173    0.339328
 ---------------------------------------------------------------------
 Rotational constants (GHZ):     35.2975406      9.6322885      7.6080021
 Standard basis: 6-311+G(3df) (5D, 7F)
 There are   128 symmetry adapted basis functions of A   symmetry.
 Integral buffers will be    131072 words long.
 Raffenetti 2 integral format.
 Two-electron integral symmetry is turned on.
   128 basis functions,   193 primitive gaussians,   146 cartesian basis functions
    17 alpha electrons       16 beta electrons
       nuclear repulsion energy       111.4949201876 Hartrees.
 NAtoms=    4 NActive=    4 NUniq=    4 SFac= 1.00D+00 NAtFMM=   60 NAOKFM=F Big=F
 Nuclear repulsion after empirical dispersion term =      111.4946632868 Hartrees.
 One-electron integrals computed using PRISM.
 NBasis=   128 RedAO= T  NBF=   128
 NBsUse=   128 1.00D-06 NBFU=   128
 Harris functional with IExCor= 4639 diagonalized for initial guess.
 ExpMin= 4.05D-02 ExpMax= 9.34D+04 ExpMxC= 3.17D+03 IAcc=2 IRadAn=         4 AccDes= 0.00D+00
 HarFok:  IExCor= 4639 AccDes= 0.00D+00 IRadAn=         4 IDoV= 1
 ScaDFX=  1.000000  1.000000  1.000000  1.000000
 FoFCou: FMM=F IPFlag=           0 FMFlag=      100000 FMFlg1=           0
         NFxFlg=           0 DoJE=T BraDBF=F KetDBF=T FulRan=T
         Omega=  0.000000  0.000000  1.000000  0.000000  0.000000 ICntrl=     500 IOpCl=  0
         NMat0=    1 NMatS0=    1 NMatT0=    0 NMatD0=    1 NMtDS0=    0 NMtDT0=    0
         I1Cent=           4 NGrid=           0.
 Petite list used in FoFCou.
 Initial guess orbital symmetries:
 Alpha Orbitals:
       Occupied  (A) (A) (A) (A) (A) (A) (A) (A) (A) (A) (A) (A)
                 (A) (A) (A) (A) (A)
       Virtual   (A) (A) (A) (A) (A) (A) (A) (A) (A) (A) (A) (A)
                 (A) (A) (A) (A) (A) (A) (A) (A) (A) (A) (A) (A)
                 (A) (A) (A) (A) (A) (A) (A) (A) (A) (A) (A) (A)
                 (A) (A) (A) (A) (A) (A) (A) (A) (A) (A) (A) (A)
                 (A) (A) (A) (A) (A) (A) (A) (A) (A) (A) (A) (A)
                 (A) (A) (A) (A) (A) (A) (A) (A) (A) (A) (A) (A)
                 (A) (A) (A) (A) (A) (A) (A) (A) (A) (A) (A) (A)
                 (A) (A) (A) (A) (A) (A) (A) (A) (A) (A) (A) (A)
                 (A) (A) (A) (A) (A) (A) (A) (A) (A) (A) (A) (A)
                 (A) (A) (A)
 Beta  Orbitals:
       Occupied  (A) (A) (A) (A) (A) (A) (A) (A) (A) (A) (A) (A)
                 (A) (A) (A) (A)
       Virtual   (A) (A) (A) (A) (A) (A) (A) (A) (A) (A) (A) (A)
                 (A) (A) (A) (A) (A) (A) (A) (A) (A) (A) (A) (A)
                 (A) (A) (A) (A) (A) (A) (A) (A) (A) (A) (A) (A)
                 (A) (A) (A) (A) (A) (A) (A) (A) (A) (A) (A) (A)
                 (A) (A) (A) (A) (A) (A) (A) (A) (A) (A) (A) (A)
                 (A) (A) (A) (A) (A) (A) (A) (A) (A) (A) (A) (A)
                 (A) (A) (A) (A) (A) (A) (A) (A) (A) (A) (A) (A)
                 (A) (A) (A) (A) (A) (A) (A) (A) (A) (A) (A) (A)
                 (A) (A) (A) (A) (A) (A) (A) (A) (A) (A) (A) (A)
                 (A) (A) (A) (A)
 The electronic state of the initial guess is 2-A.
 Initial guess <Sx>= 0.0000 <Sy>= 0.0000 <Sz>= 0.5000 <S**2>= 0.7500 S= 0.5000
 Requested convergence on RMS density matrix=1.00D-08 within 128 cycles.
 Requested convergence on MAX density matrix=1.00D-06.
 Requested convergence on             energy=1.00D-06.
 No special actions if energy rises.
 FoFJK:  IHMeth= 1 ICntrl=     0 DoSepK=T KAlg= 1 I1Cent= 0 FoldK=F
 FoFJK:  IHMeth= 1 ICntrl=     0 DoSepK=T KAlg= 1 I1Cent= 0 FoldK=F
 FoFJK:  IHMeth= 1 ICntrl=     0 DoSepK=T KAlg= 1 I1Cent= 0 FoldK=F
 FoFJK:  IHMeth= 1 ICntrl=     0 DoSepK=T KAlg= 1 I1Cent= 0 FoldK=F
 FoFJK:  IHMeth= 1 ICntrl=     0 DoSepK=T KAlg= 1 I1Cent= 0 FoldK=F
 FoFJK:  IHMeth= 1 ICntrl=     0 DoSepK=T KAlg= 1 I1Cent= 0 FoldK=F
 FoFJK:  IHMeth= 1 ICntrl=     0 DoSepK=T KAlg= 1 I1Cent= 0 FoldK=F
 FoFJK:  IHMeth= 1 ICntrl=     0 DoSepK=T KAlg= 1 I1Cent= 0 FoldK=F
 FoFJK:  IHMeth= 1 ICntrl=     0 DoSepK=T KAlg= 1 I1Cent= 0 FoldK=F
 FoFJK:  IHMeth= 1 ICntrl=     0 DoSepK=T KAlg= 1 I1Cent= 0 FoldK=F
 FoFJK:  IHMeth= 1 ICntrl=     0 DoSepK=T KAlg= 1 I1Cent= 0 FoldK=F
 FoFJK:  IHMeth= 1 ICntrl=     0 DoSepK=T KAlg= 1 I1Cent= 0 FoldK=F
 FoFJK:  IHMeth= 1 ICntrl=     0 DoSepK=T KAlg= 1 I1Cent= 0 FoldK=F
 FoFJK:  IHMeth= 1 ICntrl=     0 DoSepK=T KAlg= 1 I1Cent= 0 FoldK=F
 FoFJK:  IHMeth= 1 ICntrl=     0 DoSepK=T KAlg= 1 I1Cent= 0 FoldK=F
 SCF Done:  E(UwB97XD) =  -549.221237459     A.U. after   15 cycles
             Convg  =    0.7521D-08             -V/T =  2.0017
 <Sx>= 0.0000 <Sy>= 0.0000 <Sz>= 0.5000 <S**2>= 0.7555 S= 0.5028
 <L.S>= 0.000000000000E+00
 Annihilation of the first spin contaminant:
 S**2 before annihilation     0.7555,   after     0.7500

 **********************************************************************

            Population analysis using the SCF density.

 **********************************************************************

 Orbital symmetries:
 Alpha Orbitals:
       Occupied  (A) (A) (A) (A) (A) (A) (A) (A) (A) (A) (A) (A)
                 (A) (A) (A) (A) (A)
       Virtual   (A) (A) (A) (A) (A) (A) (A) (A) (A) (A) (A) (A)
                 (A) (A) (A) (A) (A) (A) (A) (A) (A) (A) (A) (A)
                 (A) (A) (A) (A) (A) (A) (A) (A) (A) (A) (A) (A)
                 (A) (A) (A) (A) (A) (A) (A) (A) (A) (A) (A) (A)
                 (A) (A) (A) (A) (A) (A) (A) (A) (A) (A) (A) (A)
                 (A) (A) (A) (A) (A) (A) (A) (A) (A) (A) (A) (A)
                 (A) (A) (A) (A) (A) (A) (A) (A) (A) (A) (A) (A)
                 (A) (A) (A) (A) (A) (A) (A) (A) (A) (A) (A) (A)
                 (A) (A) (A) (A) (A) (A) (A) (A) (A) (A) (A) (A)
                 (A) (A) (A)
 Beta  Orbitals:
       Occupied  (A) (A) (A) (A) (A) (A) (A) (A) (A) (A) (A) (A)
                 (A) (A) (A) (A)
       Virtual   (A) (A) (A) (A) (A) (A) (A) (A) (A) (A) (A) (A)
                 (A) (A) (A) (A) (A) (A) (A) (A) (A) (A) (A) (A)
                 (A) (A) (A) (A) (A) (A) (A) (A) (A) (A) (A) (A)
                 (A) (A) (A) (A) (A) (A) (A) (A) (A) (A) (A) (A)
                 (A) (A) (A) (A) (A) (A) (A) (A) (A) (A) (A) (A)
                 (A) (A) (A) (A) (A) (A) (A) (A) (A) (A) (A) (A)
                 (A) (A) (A) (A) (A) (A) (A) (A) (A) (A) (A) (A)
                 (A) (A) (A) (A) (A) (A) (A) (A) (A) (A) (A) (A)
                 (A) (A) (A) (A) (A) (A) (A) (A) (A) (A) (A) (A)
                 (A) (A) (A) (A)
 The electronic state is 2-A.
 Alpha  occ. eigenvalues --  -89.14860 -19.31834 -19.28341  -8.17609  -6.12539
 Alpha  occ. eigenvalues --   -6.12303  -6.11945  -1.22399  -1.14948  -0.79964
 Alpha  occ. eigenvalues --   -0.63367  -0.57411  -0.56411  -0.50699  -0.46870
 Alpha  occ. eigenvalues --   -0.42488  -0.31039
 Alpha virt. eigenvalues --    0.04903   0.06818   0.07665   0.09348   0.11884
 Alpha virt. eigenvalues --    0.13549   0.18817   0.22306   0.24606   0.25135
 Alpha virt. eigenvalues --    0.26308   0.28284   0.30043   0.32552   0.32869
 Alpha virt. eigenvalues --    0.35556   0.36373   0.38103   0.39444   0.40599
 Alpha virt. eigenvalues --    0.40990   0.50518   0.56445   0.67957   0.78363
 Alpha virt. eigenvalues --    0.82063   0.87022   0.87985   0.93227   0.96103
 Alpha virt. eigenvalues --    0.96719   0.97907   1.00019   1.01921   1.05869
 Alpha virt. eigenvalues --    1.09115   1.10403   1.12817   1.14124   1.17667
 Alpha virt. eigenvalues --    1.22202   1.28495   1.33577   1.38067   1.40361
 Alpha virt. eigenvalues --    1.43276   1.66968   1.68303   1.74373   1.81494
 Alpha virt. eigenvalues --    1.92368   2.01597   2.08503   2.09020   2.13119
 Alpha virt. eigenvalues --    2.20726   2.31127   2.36690   2.44125   3.37899
 Alpha virt. eigenvalues --    3.42297   3.45024   3.47488   3.50221   3.55478
 Alpha virt. eigenvalues --    3.56804   3.63392   3.70346   3.71509   4.53270
 Alpha virt. eigenvalues --    4.57270   4.61704   4.71022   4.90691   4.98977
 Alpha virt. eigenvalues --    5.03519   5.03984   5.04349   5.07015   5.09090
 Alpha virt. eigenvalues --    5.09935   5.11383   5.17171   5.23926   5.24582
 Alpha virt. eigenvalues --    5.42077   5.46757   5.53407   5.57723   5.67399
 Alpha virt. eigenvalues --    5.71629   5.85519   5.99615   6.58445   8.77932
 Alpha virt. eigenvalues --   14.32598  14.35656  14.37059  14.39014  14.41484
 Alpha virt. eigenvalues --   14.45270  14.47110  14.48972  14.62526  14.70914
 Alpha virt. eigenvalues --   17.36317  17.61379  17.90268  50.02589  50.11119
 Alpha virt. eigenvalues --  189.82555
  Beta  occ. eigenvalues --  -89.14476 -19.31610 -19.27443  -8.17266  -6.12311
  Beta  occ. eigenvalues --   -6.11738  -6.11069  -1.21269  -1.13481  -0.77679
  Beta  occ. eigenvalues --   -0.61978  -0.56502  -0.53310  -0.48282  -0.43499
  Beta  occ. eigenvalues --   -0.41260
  Beta virt. eigenvalues --   -0.03939   0.05355   0.07173   0.08104   0.09944
  Beta virt. eigenvalues --    0.12806   0.14332   0.19136   0.22532   0.24900
  Beta virt. eigenvalues --    0.25380   0.26686   0.28677   0.30442   0.32722
  Beta virt. eigenvalues --    0.33949   0.35837   0.36820   0.38735   0.40536
  Beta virt. eigenvalues --    0.41117   0.42060   0.51085   0.56703   0.68471
  Beta virt. eigenvalues --    0.78891   0.82278   0.87694   0.88636   0.93844
  Beta virt. eigenvalues --    0.96514   0.97693   0.98893   1.00896   1.02747
  Beta virt. eigenvalues --    1.06574   1.09997   1.12284   1.13387   1.14512
  Beta virt. eigenvalues --    1.18535   1.23438   1.28968   1.34880   1.38882
  Beta virt. eigenvalues --    1.40736   1.43652   1.70140   1.70222   1.75987
  Beta virt. eigenvalues --    1.83013   1.93203   2.02986   2.09215   2.11348
  Beta virt. eigenvalues --    2.13527   2.21224   2.31606   2.37639   2.44595
  Beta virt. eigenvalues --    3.38702   3.43799   3.47216   3.48630   3.51589
  Beta virt. eigenvalues --    3.57169   3.58221   3.64123   3.71097   3.72296
  Beta virt. eigenvalues --    4.53805   4.57429   4.62580   4.71503   4.91279
  Beta virt. eigenvalues --    4.99481   5.04280   5.04569   5.05113   5.08333
  Beta virt. eigenvalues --    5.11760   5.12896   5.13470   5.18016   5.24881
  Beta virt. eigenvalues --    5.25911   5.42637   5.47265   5.54139   5.58446
  Beta virt. eigenvalues --    5.68315   5.72207   5.87203   6.00142   6.58850
  Beta virt. eigenvalues --    8.78294  14.33752  14.37962  14.40145  14.41044
  Beta virt. eigenvalues --   14.43749  14.47194  14.49020  14.50633  14.63103
  Beta virt. eigenvalues --   14.72964  17.37702  17.61667  17.90590  50.02805
  Beta virt. eigenvalues --   50.11913 189.82859
          Condensed to atoms (all electrons):
              1          2          3          4
     1  S   15.365426  -0.014980   0.140558   0.007205
     2  O   -0.014980   8.415194   0.005972   0.209884
     3  O    0.140558   0.005972   8.233931  -0.001495
     4  H    0.007205   0.209884  -0.001495   0.291159
 Mulliken atomic charges:
              1
     1  S    0.501791
     2  O   -0.616070
     3  O   -0.378966
     4  H    0.493246
 Sum of Mulliken atomic charges =   0.00000
 Mulliken charges with hydrogens summed into heavy atoms:
              1
     1  S    0.501791
     2  O   -0.122824
     3  O   -0.378966
 Sum of Mulliken charges with hydrogens summed into heavy atoms =   0.00000
          Atomic-Atomic Spin Densities.
              1          2          3          4
     1  S    0.935765  -0.096706  -0.196177  -0.003569
     2  O   -0.096706   0.136794   0.017499  -0.004522
     3  O   -0.196177   0.017499   0.482887   0.000312
     4  H   -0.003569  -0.004522   0.000312   0.010878
 Mulliken atomic spin densities:
              1
     1  S    0.639314
     2  O    0.053066
     3  O    0.304521
     4  H    0.003100
 Sum of Mulliken atomic spin densities =   1.00000
 Electronic spatial extent (au):  <R**2>=            177.2922
 Charge=              0.0000 electrons
 Dipole moment (field-independent basis, Debye):
    X=              1.3355    Y=              0.0564    Z=              0.7037  Tot=              1.5106
 Quadrupole moment (field-independent basis, Debye-Ang):
   XX=            -26.4857   YY=            -21.2704   ZZ=            -23.4487
   XY=              3.3969   XZ=              0.9348   YZ=              1.0768
 Traceless Quadrupole moment (field-independent basis, Debye-Ang):
   XX=             -2.7508   YY=              2.4645   ZZ=              0.2863
   XY=              3.3969   XZ=              0.9348   YZ=              1.0768
 Octapole moment (field-independent basis, Debye-Ang**2):
  XXX=              1.8063  YYY=              4.9072  ZZZ=              0.0212  XYY=              4.4161
  XXY=              1.2466  XXZ=              1.1920  XZZ=              0.3306  YZZ=              1.3374
  YYZ=              1.2328  XYZ=              1.3274
 Hexadecapole moment (field-independent basis, Debye-Ang**3):
 XXXX=           -140.8883 YYYY=            -51.8095 ZZZZ=            -25.0434 XXXY=              6.3973
 XXXZ=              1.7199 YYYX=              5.9612 YYYZ=              1.7251 ZZZX=              0.5458
 ZZZY=              0.7969 XXYY=            -26.6729 XXZZ=            -26.6489 YYZZ=            -13.6367
 XXYZ=              1.8594 YYXZ=              1.5561 ZZXY=              0.6278
 N-N= 1.114946632868D+02 E-N=-2.282114625952D+03  KE= 8.210380511891D+02
                          Isotropic Fermi Contact Couplings
        Atom                 a.u.       MegaHertz       Gauss      10(-4) cm-1
     1  S(33)              0.10295      35.35999      12.61732      11.79482
     2  O(17)              0.02328     -14.11235      -5.03564      -4.70737
     3  O(17)              0.05260     -31.88545     -11.37752     -10.63584
     4  H(1)               0.00229      10.22505       3.64855       3.41071
 --------------------------------------------------------
       Center         ----  Spin Dipole Couplings  ----
                      3XX-RR        3YY-RR        3ZZ-RR
 --------------------------------------------------------
     1   Atom       -1.500101     -1.605323      3.105424
     2   Atom       -0.221718     -0.177650      0.399369
     3   Atom       -0.781057     -0.785389      1.566445
     4   Atom       -0.007804      0.018868     -0.011063
 --------------------------------------------------------
                        XY            XZ            YZ
 --------------------------------------------------------
     1   Atom       -0.004849     -0.063700      0.229448
     2   Atom        0.007779      0.010756     -0.131428
     3   Atom        0.007234      0.101341      0.060330
     4   Atom        0.006166      0.001672      0.006442
 --------------------------------------------------------


 ---------------------------------------------------------------------------------
              Anisotropic Spin Dipole Couplings in Principal Axis System
 ---------------------------------------------------------------------------------

       Atom             a.u.   MegaHertz   Gauss  10(-4) cm-1        Axes

              Baa    -1.6165   -66.275   -23.649   -22.107  0.0152  0.9987 -0.0483
     1 S(33)  Bbb    -1.5010   -61.538   -21.958   -20.527  0.9998 -0.0145  0.0145
              Bcc     3.1175   127.813    45.607    42.634 -0.0138  0.0485  0.9987
 
              Baa    -0.2266    16.398     5.851     5.470  0.9002 -0.4228 -0.1042
     2 O(17)  Bbb    -0.2014    14.573     5.200     4.861  0.4352  0.8811  0.1850
              Bcc     0.4280   -30.971   -11.051   -10.331  0.0136 -0.2119  0.9772
 
              Baa    -0.7909    57.227    20.420    19.089 -0.6475  0.7621  0.0083
     3 O(17)  Bbb    -0.7815    56.548    20.178    18.863  0.7609  0.6470 -0.0495
              Bcc     1.5724  -113.776   -40.598   -37.951  0.0431  0.0257  0.9987
 
              Baa    -0.0124    -6.636    -2.368    -2.213 -0.1152 -0.1784  0.9772
     4 H(1)   Bbb    -0.0091    -4.878    -1.741    -1.627  0.9704 -0.2303  0.0724
              Bcc     0.0216    11.514     4.108     3.841  0.2121  0.9566  0.1996
 

 ---------------------------------------------------------------------------------

 1\1\ CPUSERV-QCEXNOD09\SP\UwB97XD\6-311+G(3df)\H1O2S1(2)\ROOT\21-Aug-2
 025\0\\#sp wB97XD/6-311+G(3df)\\Optimizacion del hoso\\0,2\S,0,-0.1388
 43,-0.472008,0.019308\O,0,1.310132,0.256471,-0.05304\O,0,-1.188636,0.5
 43438,-0.024037\H,0,1.254521,1.138845,0.349681\\Version=EM64L-G09RevC.
 01\State=2-A\HF=-549.2212375\S2=0.755509\S2-1=0.\S2A=0.750021\RMSD=7.5
 21e-09\Dipole=0.5247138,0.0207055,0.2783236\Quadrupole=-2.0481741,1.82
 34478,0.2247263,2.5202918,0.7023167,0.8152531\PG=C01 [X(H1O2S1)]\\@


 WE THE UNWILLING
 LED BY THE UNQUALIFIED
 HAVE BEEN DOING THE UNBELIEVABLE SO LONG WITH SO LITTLE
 THAT WE NOW ATTEMPT THE IMPOSSIBLE WITH NOTHING.

                                    -- ANONYMOUS
 Job cpu time:  0 days  0 hours  3 minutes 28.1 seconds.
 File lengths (MBytes):  RWF=     21 Int=      0 D2E=      0 Chk=      2 Scr=      1
 Normal termination of Gaussian 09 at Thu Aug 21 00:36:00 2025.
