 Entering Gaussian System, Link 0=g09
 Initial command:
 /soft/g09.c01/g09/l1.exe /scr/macias/389586.qcexmaster_vib3_-0.15/Gau-22554.inp -scrdir=/scr/macias/389586.qcexmaster_vib3_-0.15/
 Entering Link 1 = /soft/g09.c01/g09/l1.exe PID=     22558.
  
 Copyright (c) 1988,1990,1992,1993,1995,1998,2003,2009,2011,
            Gaussian, Inc.  All Rights Reserved.
  
 This is part of the Gaussian(R) 09 program.  It is based on
 the Gaussian(R) 03 system (copyright 2003, Gaussian, Inc.),
 the Gaussian(R) 98 system (copyright 1998, Gaussian, Inc.),
 the Gaussian(R) 94 system (copyright 1995, Gaussian, Inc.),
 the Gaussian 92(TM) system (copyright 1992, Gaussian, Inc.),
 the Gaussian 90(TM) system (copyright 1990, Gaussian, Inc.),
 the Gaussian 88(TM) system (copyright 1988, Gaussian, Inc.),
 the Gaussian 86(TM) system (copyright 1986, Carnegie Mellon
 University), and the Gaussian 82(TM) system (copyright 1983,
 Carnegie Mellon University). Gaussian is a federally registered
 trademark of Gaussian, Inc.
  
 This software contains proprietary and confidential information,
 including trade secrets, belonging to Gaussian, Inc.
  
 This software is provided under written license and may be
 used, copied, transmitted, or stored only in accord with that
 written license.
  
 The following legend is applicable only to US Government
 contracts under FAR:
  
                    RESTRICTED RIGHTS LEGEND
  
 Use, reproduction and disclosure by the US Government is
 subject to restrictions as set forth in subparagraphs (a)
 and (c) of the Commercial Computer Software - Restricted
 Rights clause in FAR 52.227-19.
  
 Gaussian, Inc.
 340 Quinnipiac St., Bldg. 40, Wallingford CT 06492
  
  
 ---------------------------------------------------------------
 Warning -- This program may not be used in any manner that
 competes with the business of Gaussian, Inc. or will provide
 assistance to any competitor of Gaussian, Inc.  The licensee
 of this program is prohibited from giving any competitor of
 Gaussian, Inc. access to this program.  By using this program,
 the user acknowledges that Gaussian, Inc. is engaged in the
 business of creating and licensing software in the field of
 computational chemistry and represents and warrants to the
 licensee that it is not a competitor of Gaussian, Inc. and that
 it will not use this program in any manner prohibited above.
 ---------------------------------------------------------------
  

 Cite this work as:
 Gaussian 09, Revision C.01,
 M. J. Frisch, G. W. Trucks, H. B. Schlegel, G. E. Scuseria, 
 M. A. Robb, J. R. Cheeseman, G. Scalmani, V. Barone, B. Mennucci, 
 G. A. Petersson, H. Nakatsuji, M. Caricato, X. Li, H. P. Hratchian, 
 A. F. Izmaylov, J. Bloino, G. Zheng, J. L. Sonnenberg, M. Hada, 
 M. Ehara, K. Toyota, R. Fukuda, J. Hasegawa, M. Ishida, T. Nakajima, 
 Y. Honda, O. Kitao, H. Nakai, T. Vreven, J. A. Montgomery, Jr., 
 J. E. Peralta, F. Ogliaro, M. Bearpark, J. J. Heyd, E. Brothers, 
 K. N. Kudin, V. N. Staroverov, T. Keith, R. Kobayashi, J. Normand, 
 K. Raghavachari, A. Rendell, J. C. Burant, S. S. Iyengar, J. Tomasi, 
 M. Cossi, N. Rega, J. M. Millam, M. Klene, J. E. Knox, J. B. Cross, 
 V. Bakken, C. Adamo, J. Jaramillo, R. Gomperts, R. E. Stratmann, 
 O. Yazyev, A. J. Austin, R. Cammi, C. Pomelli, J. W. Ochterski, 
 R. L. Martin, K. Morokuma, V. G. Zakrzewski, G. A. Voth, 
 P. Salvador, J. J. Dannenberg, S. Dapprich, A. D. Daniels, 
 O. Farkas, J. B. Foresman, J. V. Ortiz, J. Cioslowski, 
 and D. J. Fox, Gaussian, Inc., Wallingford CT, 2010.
 
  
 -----  Compilado por  -----------------------------------------
  
  Servicio de Calculo | Servicio de Informatica U. de Valencia
     calculo@uv.es    |  E-46100 Burjassot (Valencia) SPAIN
  
 ---------------------------------------------------------------
  
 ******************************************
 Gaussian 09:  EM64L-G09RevC.01 23-Sep-2011
                21-Aug-2025 
 ******************************************
 %chk=opt_freq.chk
 %nproc=6
 Will use up to    6 processors via shared memory.
 %mem=20GB
 Default route:  CacheSize=131072
 -----------------------
 #sp wB97XD/6-311+G(3df)
 -----------------------
 1/4=131072,38=1/1;
 2/4=131072,12=2,17=6,18=5,40=1/2;
 3/4=131072,5=4,6=6,7=16,11=2,16=1,25=1,30=1,74=-58/1,2,3;
 4/4=131072/1;
 5/4=131072,5=2,38=5/2;
 6/4=131072,7=2,8=2,9=2,10=2,28=1/1;
 99/4=131072,5=1,9=1/99;
 ---------------------
 Optimizacion del hoso
 ---------------------
 Charge =  0 Multiplicity = 2
 Symbolic Z-Matrix:
 S                    -0.18834  -0.51001   0.01931 
 O                     1.41663   0.31347  -0.05254 
 O                    -1.19014   0.56044  -0.02154 
 H                     1.18502   1.19885   0.29568 
 
                          Input orientation:                          
 ---------------------------------------------------------------------
 Center     Atomic      Atomic             Coordinates (Angstroms)
 Number     Number       Type             X           Y           Z
 ---------------------------------------------------------------------
      1         16           0       -0.188343   -0.510008    0.019308
      2          8           0        1.416632    0.313471   -0.052540
      3          8           0       -1.190136    0.560438   -0.021537
      4          1           0        1.185021    1.198845    0.295681
 ---------------------------------------------------------------------
                    Distance matrix (angstroms):
                    1          2          3          4
     1  S    0.000000
     2  O    1.805332   0.000000
     3  O    1.466667   2.618624   0.000000
     4  H    2.209681   0.979178   2.479831   0.000000
 Stoichiometry    HO2S(2)
 Framework group  C1[X(HO2S)]
 Deg. of freedom     6
 Full point group                 C1      NOp   1
 Largest Abelian subgroup         C1      NOp   1
 Largest concise Abelian subgroup C1      NOp   1
                         Standard orientation:                         
 ---------------------------------------------------------------------
 Center     Atomic      Atomic             Coordinates (Angstroms)
 Number     Number       Type             X           Y           Z
 ---------------------------------------------------------------------
      1         16           0       -0.216779   -0.499406    0.016730
      2          8           0        1.432842    0.231258   -0.047341
      3          8           0       -1.155657    0.626632   -0.023984
      4          1           0        1.250989    1.127384    0.302914
 ---------------------------------------------------------------------
 Rotational constants (GHZ):     30.6932268      8.7979559      6.8629644
 Standard basis: 6-311+G(3df) (5D, 7F)
 There are   128 symmetry adapted basis functions of A   symmetry.
 Integral buffers will be    131072 words long.
 Raffenetti 2 integral format.
 Two-electron integral symmetry is turned on.
   128 basis functions,   193 primitive gaussians,   146 cartesian basis functions
    17 alpha electrons       16 beta electrons
       nuclear repulsion energy       106.4975002266 Hartrees.
 NAtoms=    4 NActive=    4 NUniq=    4 SFac= 1.00D+00 NAtFMM=   60 NAOKFM=F Big=F
 Nuclear repulsion after empirical dispersion term =      106.4972258970 Hartrees.
 One-electron integrals computed using PRISM.
 NBasis=   128 RedAO= T  NBF=   128
 NBsUse=   128 1.00D-06 NBFU=   128
 Harris functional with IExCor= 4639 diagonalized for initial guess.
 ExpMin= 4.05D-02 ExpMax= 9.34D+04 ExpMxC= 3.17D+03 IAcc=2 IRadAn=         4 AccDes= 0.00D+00
 HarFok:  IExCor= 4639 AccDes= 0.00D+00 IRadAn=         4 IDoV= 1
 ScaDFX=  1.000000  1.000000  1.000000  1.000000
 FoFCou: FMM=F IPFlag=           0 FMFlag=      100000 FMFlg1=           0
         NFxFlg=           0 DoJE=T BraDBF=F KetDBF=T FulRan=T
         Omega=  0.000000  0.000000  1.000000  0.000000  0.000000 ICntrl=     500 IOpCl=  0
         NMat0=    1 NMatS0=    1 NMatT0=    0 NMatD0=    1 NMtDS0=    0 NMtDT0=    0
         I1Cent=           4 NGrid=           0.
 Petite list used in FoFCou.
 Initial guess orbital symmetries:
 Alpha Orbitals:
       Occupied  (A) (A) (A) (A) (A) (A) (A) (A) (A) (A) (A) (A)
                 (A) (A) (A) (A) (A)
       Virtual   (A) (A) (A) (A) (A) (A) (A) (A) (A) (A) (A) (A)
                 (A) (A) (A) (A) (A) (A) (A) (A) (A) (A) (A) (A)
                 (A) (A) (A) (A) (A) (A) (A) (A) (A) (A) (A) (A)
                 (A) (A) (A) (A) (A) (A) (A) (A) (A) (A) (A) (A)
                 (A) (A) (A) (A) (A) (A) (A) (A) (A) (A) (A) (A)
                 (A) (A) (A) (A) (A) (A) (A) (A) (A) (A) (A) (A)
                 (A) (A) (A) (A) (A) (A) (A) (A) (A) (A) (A) (A)
                 (A) (A) (A) (A) (A) (A) (A) (A) (A) (A) (A) (A)
                 (A) (A) (A) (A) (A) (A) (A) (A) (A) (A) (A) (A)
                 (A) (A) (A)
 Beta  Orbitals:
       Occupied  (A) (A) (A) (A) (A) (A) (A) (A) (A) (A) (A) (A)
                 (A) (A) (A) (A)
       Virtual   (A) (A) (A) (A) (A) (A) (A) (A) (A) (A) (A) (A)
                 (A) (A) (A) (A) (A) (A) (A) (A) (A) (A) (A) (A)
                 (A) (A) (A) (A) (A) (A) (A) (A) (A) (A) (A) (A)
                 (A) (A) (A) (A) (A) (A) (A) (A) (A) (A) (A) (A)
                 (A) (A) (A) (A) (A) (A) (A) (A) (A) (A) (A) (A)
                 (A) (A) (A) (A) (A) (A) (A) (A) (A) (A) (A) (A)
                 (A) (A) (A) (A) (A) (A) (A) (A) (A) (A) (A) (A)
                 (A) (A) (A) (A) (A) (A) (A) (A) (A) (A) (A) (A)
                 (A) (A) (A) (A) (A) (A) (A) (A) (A) (A) (A) (A)
                 (A) (A) (A) (A)
 The electronic state of the initial guess is 2-A.
 Initial guess <Sx>= 0.0000 <Sy>= 0.0000 <Sz>= 0.5000 <S**2>= 0.7500 S= 0.5000
 Requested convergence on RMS density matrix=1.00D-08 within 128 cycles.
 Requested convergence on MAX density matrix=1.00D-06.
 Requested convergence on             energy=1.00D-06.
 No special actions if energy rises.
 FoFJK:  IHMeth= 1 ICntrl=     0 DoSepK=T KAlg= 1 I1Cent= 0 FoldK=F
 FoFJK:  IHMeth= 1 ICntrl=     0 DoSepK=T KAlg= 1 I1Cent= 0 FoldK=F
 FoFJK:  IHMeth= 1 ICntrl=     0 DoSepK=T KAlg= 1 I1Cent= 0 FoldK=F
 FoFJK:  IHMeth= 1 ICntrl=     0 DoSepK=T KAlg= 1 I1Cent= 0 FoldK=F
 FoFJK:  IHMeth= 1 ICntrl=     0 DoSepK=T KAlg= 1 I1Cent= 0 FoldK=F
 FoFJK:  IHMeth= 1 ICntrl=     0 DoSepK=T KAlg= 1 I1Cent= 0 FoldK=F
 FoFJK:  IHMeth= 1 ICntrl=     0 DoSepK=T KAlg= 1 I1Cent= 0 FoldK=F
 FoFJK:  IHMeth= 1 ICntrl=     0 DoSepK=T KAlg= 1 I1Cent= 0 FoldK=F
 FoFJK:  IHMeth= 1 ICntrl=     0 DoSepK=T KAlg= 1 I1Cent= 0 FoldK=F
 FoFJK:  IHMeth= 1 ICntrl=     0 DoSepK=T KAlg= 1 I1Cent= 0 FoldK=F
 FoFJK:  IHMeth= 1 ICntrl=     0 DoSepK=T KAlg= 1 I1Cent= 0 FoldK=F
 FoFJK:  IHMeth= 1 ICntrl=     0 DoSepK=T KAlg= 1 I1Cent= 0 FoldK=F
 FoFJK:  IHMeth= 1 ICntrl=     0 DoSepK=T KAlg= 1 I1Cent= 0 FoldK=F
 FoFJK:  IHMeth= 1 ICntrl=     0 DoSepK=T KAlg= 1 I1Cent= 0 FoldK=F
 FoFJK:  IHMeth= 1 ICntrl=     0 DoSepK=T KAlg= 1 I1Cent= 0 FoldK=F
 FoFJK:  IHMeth= 1 ICntrl=     0 DoSepK=T KAlg= 1 I1Cent= 0 FoldK=F
 SCF Done:  E(UwB97XD) =  -549.209393492     A.U. after   16 cycles
             Convg  =    0.9735D-08             -V/T =  2.0021
 <Sx>= 0.0000 <Sy>= 0.0000 <Sz>= 0.5000 <S**2>= 0.7556 S= 0.5028
 <L.S>= 0.000000000000E+00
 Annihilation of the first spin contaminant:
 S**2 before annihilation     0.7556,   after     0.7500

 **********************************************************************

            Population analysis using the SCF density.

 **********************************************************************

 Orbital symmetries:
 Alpha Orbitals:
       Occupied  (A) (A) (A) (A) (A) (A) (A) (A) (A) (A) (A) (A)
                 (A) (A) (A) (A) (A)
       Virtual   (A) (A) (A) (A) (A) (A) (A) (A) (A) (A) (A) (A)
                 (A) (A) (A) (A) (A) (A) (A) (A) (A) (A) (A) (A)
                 (A) (A) (A) (A) (A) (A) (A) (A) (A) (A) (A) (A)
                 (A) (A) (A) (A) (A) (A) (A) (A) (A) (A) (A) (A)
                 (A) (A) (A) (A) (A) (A) (A) (A) (A) (A) (A) (A)
                 (A) (A) (A) (A) (A) (A) (A) (A) (A) (A) (A) (A)
                 (A) (A) (A) (A) (A) (A) (A) (A) (A) (A) (A) (A)
                 (A) (A) (A) (A) (A) (A) (A) (A) (A) (A) (A) (A)
                 (A) (A) (A) (A) (A) (A) (A) (A) (A) (A) (A) (A)
                 (A) (A) (A)
 Beta  Orbitals:
       Occupied  (A) (A) (A) (A) (A) (A) (A) (A) (A) (A) (A) (A)
                 (A) (A) (A) (A)
       Virtual   (A) (A) (A) (A) (A) (A) (A) (A) (A) (A) (A) (A)
                 (A) (A) (A) (A) (A) (A) (A) (A) (A) (A) (A) (A)
                 (A) (A) (A) (A) (A) (A) (A) (A) (A) (A) (A) (A)
                 (A) (A) (A) (A) (A) (A) (A) (A) (A) (A) (A) (A)
                 (A) (A) (A) (A) (A) (A) (A) (A) (A) (A) (A) (A)
                 (A) (A) (A) (A) (A) (A) (A) (A) (A) (A) (A) (A)
                 (A) (A) (A) (A) (A) (A) (A) (A) (A) (A) (A) (A)
                 (A) (A) (A) (A) (A) (A) (A) (A) (A) (A) (A) (A)
                 (A) (A) (A) (A) (A) (A) (A) (A) (A) (A) (A) (A)
                 (A) (A) (A) (A)
 The electronic state is 2-A.
 Alpha  occ. eigenvalues --  -89.16338 -19.30502 -19.30046  -8.19016  -6.13917
 Alpha  occ. eigenvalues --   -6.13706  -6.13397  -1.20748  -1.12219  -0.79020
 Alpha  occ. eigenvalues --   -0.60820  -0.56565  -0.55822  -0.52155  -0.45016
 Alpha  occ. eigenvalues --   -0.42468  -0.33061
 Alpha virt. eigenvalues --    0.01529   0.06078   0.06876   0.09169   0.09970
 Alpha virt. eigenvalues --    0.13320   0.18873   0.22979   0.24477   0.24591
 Alpha virt. eigenvalues --    0.25817   0.27740   0.30047   0.31832   0.32381
 Alpha virt. eigenvalues --    0.33938   0.35577   0.37463   0.38960   0.40021
 Alpha virt. eigenvalues --    0.40480   0.46397   0.57279   0.65842   0.78133
 Alpha virt. eigenvalues --    0.82819   0.86892   0.87391   0.93237   0.94582
 Alpha virt. eigenvalues --    0.97243   0.98136   0.99674   1.02026   1.05198
 Alpha virt. eigenvalues --    1.07140   1.08928   1.10448   1.12375   1.15331
 Alpha virt. eigenvalues --    1.17759   1.26246   1.31001   1.35828   1.36464
 Alpha virt. eigenvalues --    1.45450   1.66135   1.66789   1.72772   1.77707
 Alpha virt. eigenvalues --    1.83990   1.93564   1.96333   2.07439   2.09124
 Alpha virt. eigenvalues --    2.19471   2.32876   2.37966   2.46392   3.38433
 Alpha virt. eigenvalues --    3.40920   3.43687   3.50182   3.51040   3.53625
 Alpha virt. eigenvalues --    3.56176   3.64113   3.67826   3.71377   4.55570
 Alpha virt. eigenvalues --    4.58257   4.60233   4.60904   4.89655   5.01081
 Alpha virt. eigenvalues --    5.03992   5.04866   5.05036   5.06354   5.07053
 Alpha virt. eigenvalues --    5.07858   5.09470   5.12101   5.20404   5.21512
 Alpha virt. eigenvalues --    5.29712   5.33560   5.35661   5.55632   5.64827
 Alpha virt. eigenvalues --    5.69498   5.81344   5.90257   6.27917   8.60866
 Alpha virt. eigenvalues --   14.33106  14.34056  14.35754  14.41085  14.41656
 Alpha virt. eigenvalues --   14.43299  14.44448  14.48800  14.55489  14.68199
 Alpha virt. eigenvalues --   17.34130  17.58953  17.84555  50.01251  50.08377
 Alpha virt. eigenvalues --  189.64926
  Beta  occ. eigenvalues --  -89.15951 -19.29878 -19.29553  -8.18674  -6.13686
  Beta  occ. eigenvalues --   -6.13187  -6.12471  -1.18941  -1.11473  -0.75979
  Beta  occ. eigenvalues --   -0.59982  -0.55424  -0.52040  -0.49829  -0.42305
  Beta  occ. eigenvalues --   -0.41487
  Beta virt. eigenvalues --   -0.05838   0.02468   0.06411   0.07355   0.09688
  Beta virt. eigenvalues --    0.10395   0.14068   0.19084   0.23204   0.24676
  Beta virt. eigenvalues --    0.24975   0.26228   0.28125   0.30334   0.32280
  Beta virt. eigenvalues --    0.33259   0.34312   0.36371   0.37858   0.40201
  Beta virt. eigenvalues --    0.40601   0.41144   0.47009   0.57416   0.66405
  Beta virt. eigenvalues --    0.78643   0.83140   0.87338   0.88238   0.94118
  Beta virt. eigenvalues --    0.94839   0.98662   0.99111   1.00102   1.02715
  Beta virt. eigenvalues --    1.05906   1.07894   1.10470   1.11334   1.12747
  Beta virt. eigenvalues --    1.16390   1.18680   1.26651   1.32291   1.36429
  Beta virt. eigenvalues --    1.37349   1.45751   1.68593   1.69268   1.74306
  Beta virt. eigenvalues --    1.79321   1.85165   1.94234   1.98119   2.09184
  Beta virt. eigenvalues --    2.09746   2.20013   2.33662   2.38627   2.46787
  Beta virt. eigenvalues --    3.39517   3.42876   3.46027   3.50878   3.52188
  Beta virt. eigenvalues --    3.55772   3.56852   3.64791   3.69149   3.71641
  Beta virt. eigenvalues --    4.56136   4.58418   4.61142   4.61310   4.90357
  Beta virt. eigenvalues --    5.01594   5.04685   5.05525   5.05718   5.07604
  Beta virt. eigenvalues --    5.09849   5.10618   5.11545   5.12742   5.21601
  Beta virt. eigenvalues --    5.22589   5.30452   5.34012   5.36270   5.56273
  Beta virt. eigenvalues --    5.65957   5.69826   5.83212   5.90793   6.28364
  Beta virt. eigenvalues --    8.61263  14.34936  14.37270  14.39075  14.41967
  Beta virt. eigenvalues --   14.43083  14.45162  14.47244  14.49765  14.55932
  Beta virt. eigenvalues --   14.70373  17.35525  17.59268  17.84877  50.01422
  Beta virt. eigenvalues --   50.09218 189.65232
          Condensed to atoms (all electrons):
              1          2          3          4
     1  S   15.235974   0.052551   0.151287   0.009455
     2  O    0.052551   8.443081  -0.002866   0.205651
     3  O    0.151287  -0.002866   8.185605   0.000284
     4  H    0.009455   0.205651   0.000284   0.302616
 Mulliken atomic charges:
              1
     1  S    0.550733
     2  O   -0.698417
     3  O   -0.334310
     4  H    0.481994
 Sum of Mulliken atomic charges =   0.00000
 Mulliken charges with hydrogens summed into heavy atoms:
              1
     1  S    0.550733
     2  O   -0.216423
     3  O   -0.334310
 Sum of Mulliken charges with hydrogens summed into heavy atoms =   0.00000
          Atomic-Atomic Spin Densities.
              1          2          3          4
     1  S    0.884942  -0.061188  -0.187902  -0.000258
     2  O   -0.061188   0.089721   0.013270  -0.001961
     3  O   -0.187902   0.013270   0.498875  -0.000348
     4  H   -0.000258  -0.001961  -0.000348   0.003239
 Mulliken atomic spin densities:
              1
     1  S    0.635593
     2  O    0.039842
     3  O    0.323894
     4  H    0.000671
 Sum of Mulliken atomic spin densities =   1.00000
 Electronic spatial extent (au):  <R**2>=            190.6786
 Charge=              0.0000 electrons
 Dipole moment (field-independent basis, Debye):
    X=              0.1657    Y=             -0.4267    Z=              0.5968  Tot=              0.7522
 Quadrupole moment (field-independent basis, Debye-Ang):
   XX=            -27.3289   YY=            -21.1545   ZZ=            -23.6631
   XY=              3.1765   XZ=              0.7255   YZ=              0.9418
 Traceless Quadrupole moment (field-independent basis, Debye-Ang):
   XX=             -3.2801   YY=              2.8943   ZZ=              0.3858
   XY=              3.1765   XZ=              0.7255   YZ=              0.9418
 Octapole moment (field-independent basis, Debye-Ang**2):
  XXX=             -2.1030  YYY=              3.8933  ZZZ=              0.0411  XYY=              3.9195
  XXY=              0.6995  XXZ=              0.8671  XZZ=             -0.3960  YZZ=              1.0415
  YYZ=              1.0422  XYZ=              1.2022
 Hexadecapole moment (field-independent basis, Debye-Ang**3):
 XXXX=           -155.5813 YYYY=            -55.4339 ZZZZ=            -25.0226 XXXY=              5.4617
 XXXZ=              1.1101 YYYX=              4.7742 YYYZ=              1.4653 ZZZX=              0.3838
 ZZZY=              0.6567 XXYY=            -29.7009 XXZZ=            -29.1539 YYZZ=            -14.2851
 XXYZ=              1.6772 YYXZ=              1.2825 ZZXY=              0.2425
 N-N= 1.064972258970D+02 E-N=-2.266893928958D+03  KE= 8.206929307466D+02
                          Isotropic Fermi Contact Couplings
        Atom                 a.u.       MegaHertz       Gauss      10(-4) cm-1
     1  S(33)              0.08391      28.82000      10.28369       9.61332
     2  O(17)              0.01417      -8.58819      -3.06448      -2.86471
     3  O(17)              0.05407     -32.77480     -11.69486     -10.93250
     4  H(1)               0.00029       1.28903       0.45996       0.42997
 --------------------------------------------------------
       Center         ----  Spin Dipole Couplings  ----
                      3XX-RR        3YY-RR        3ZZ-RR
 --------------------------------------------------------
     1   Atom       -1.497132     -1.608365      3.105497
     2   Atom       -0.215513     -0.142174      0.357687
     3   Atom       -0.811343     -0.828172      1.639515
     4   Atom       -0.002921      0.012860     -0.009939
 --------------------------------------------------------
                        XY            XZ            YZ
 --------------------------------------------------------
     1   Atom        0.017195     -0.023936      0.190727
     2   Atom       -0.013513      0.023425     -0.097524
     3   Atom        0.016846      0.070707      0.059655
     4   Atom        0.004084      0.001253      0.004039
 --------------------------------------------------------


 ---------------------------------------------------------------------------------
              Anisotropic Spin Dipole Couplings in Principal Axis System
 ---------------------------------------------------------------------------------

       Atom             a.u.   MegaHertz   Gauss  10(-4) cm-1        Axes

              Baa    -1.6188   -66.368   -23.682   -22.138 -0.1477  0.9882 -0.0406
     1 S(33)  Bbb    -1.4945   -61.275   -21.864   -20.439  0.9890  0.1478 -0.0010
              Bcc     3.1133   127.643    45.546    42.577 -0.0050  0.0403  0.9992
 
              Baa    -0.2180    15.775     5.629     5.262  0.9872  0.1589 -0.0133
     2 O(17)  Bbb    -0.1591    11.515     4.109     3.841 -0.1535  0.9697  0.1899
              Bcc     0.3771   -27.290    -9.738    -9.103  0.0430 -0.1855  0.9817
 
              Baa    -0.8387    60.686    21.654    20.243 -0.5134  0.8581 -0.0060
     3 O(17)  Bbb    -0.8043    58.202    20.768    19.414  0.8576  0.5129 -0.0373
              Bcc     1.6430  -118.887   -42.422   -39.657  0.0290  0.0243  0.9993
 
              Baa    -0.0107    -5.696    -2.032    -1.900 -0.0772 -0.1556  0.9848
     4 H(1)   Bbb    -0.0039    -2.084    -0.744    -0.695  0.9688 -0.2450  0.0373
              Bcc     0.0146     7.780     2.776     2.595  0.2355  0.9570  0.1697
 

 ---------------------------------------------------------------------------------

 1\1\ CPUSERV-QCEXNOD11\SP\UwB97XD\6-311+G(3df)\H1O2S1(2)\ROOT\21-Aug-2
 025\0\\#sp wB97XD/6-311+G(3df)\\Optimizacion del hoso\\0,2\S,0,-0.1883
 43,-0.510008,0.019308\O,0,1.416632,0.313471,-0.05254\O,0,-1.190136,0.5
 60438,-0.021537\H,0,1.185021,1.198845,0.295681\\Version=EM64L-G09RevC.
 01\State=2-A\HF=-549.2093935\S2=0.755594\S2-1=0.\S2A=0.750022\RMSD=9.7
 35e-09\Dipole=0.07545,-0.1631302,0.2350831\Quadrupole=-2.6897933,2.410
 7515,0.2790418,2.0883958,0.5015538,0.7164735\PG=C01 [X(H1O2S1)]\\@


 HEAVEN'S NET CASTS WIDE.
 THOUGH ITS MESHES ARE COARSE, NOTHING SLIPS THROUGH.

                                          -- LAO-TSU
 Job cpu time:  0 days  0 hours  3 minutes 24.2 seconds.
 File lengths (MBytes):  RWF=     21 Int=      0 D2E=      0 Chk=      2 Scr=      1
 Normal termination of Gaussian 09 at Thu Aug 21 00:36:53 2025.
