 Entering Gaussian System, Link 0=g09
 Initial command:
 /soft/g09.c01/g09/l1.exe /scr/macias/389599.qcexmaster_vib4_0.05/Gau-25697.inp -scrdir=/scr/macias/389599.qcexmaster_vib4_0.05/
 Entering Link 1 = /soft/g09.c01/g09/l1.exe PID=     25706.
  
 Copyright (c) 1988,1990,1992,1993,1995,1998,2003,2009,2011,
            Gaussian, Inc.  All Rights Reserved.
  
 This is part of the Gaussian(R) 09 program.  It is based on
 the Gaussian(R) 03 system (copyright 2003, Gaussian, Inc.),
 the Gaussian(R) 98 system (copyright 1998, Gaussian, Inc.),
 the Gaussian(R) 94 system (copyright 1995, Gaussian, Inc.),
 the Gaussian 92(TM) system (copyright 1992, Gaussian, Inc.),
 the Gaussian 90(TM) system (copyright 1990, Gaussian, Inc.),
 the Gaussian 88(TM) system (copyright 1988, Gaussian, Inc.),
 the Gaussian 86(TM) system (copyright 1986, Carnegie Mellon
 University), and the Gaussian 82(TM) system (copyright 1983,
 Carnegie Mellon University). Gaussian is a federally registered
 trademark of Gaussian, Inc.
  
 This software contains proprietary and confidential information,
 including trade secrets, belonging to Gaussian, Inc.
  
 This software is provided under written license and may be
 used, copied, transmitted, or stored only in accord with that
 written license.
  
 The following legend is applicable only to US Government
 contracts under FAR:
  
                    RESTRICTED RIGHTS LEGEND
  
 Use, reproduction and disclosure by the US Government is
 subject to restrictions as set forth in subparagraphs (a)
 and (c) of the Commercial Computer Software - Restricted
 Rights clause in FAR 52.227-19.
  
 Gaussian, Inc.
 340 Quinnipiac St., Bldg. 40, Wallingford CT 06492
  
  
 ---------------------------------------------------------------
 Warning -- This program may not be used in any manner that
 competes with the business of Gaussian, Inc. or will provide
 assistance to any competitor of Gaussian, Inc.  The licensee
 of this program is prohibited from giving any competitor of
 Gaussian, Inc. access to this program.  By using this program,
 the user acknowledges that Gaussian, Inc. is engaged in the
 business of creating and licensing software in the field of
 computational chemistry and represents and warrants to the
 licensee that it is not a competitor of Gaussian, Inc. and that
 it will not use this program in any manner prohibited above.
 ---------------------------------------------------------------
  

 Cite this work as:
 Gaussian 09, Revision C.01,
 M. J. Frisch, G. W. Trucks, H. B. Schlegel, G. E. Scuseria, 
 M. A. Robb, J. R. Cheeseman, G. Scalmani, V. Barone, B. Mennucci, 
 G. A. Petersson, H. Nakatsuji, M. Caricato, X. Li, H. P. Hratchian, 
 A. F. Izmaylov, J. Bloino, G. Zheng, J. L. Sonnenberg, M. Hada, 
 M. Ehara, K. Toyota, R. Fukuda, J. Hasegawa, M. Ishida, T. Nakajima, 
 Y. Honda, O. Kitao, H. Nakai, T. Vreven, J. A. Montgomery, Jr., 
 J. E. Peralta, F. Ogliaro, M. Bearpark, J. J. Heyd, E. Brothers, 
 K. N. Kudin, V. N. Staroverov, T. Keith, R. Kobayashi, J. Normand, 
 K. Raghavachari, A. Rendell, J. C. Burant, S. S. Iyengar, J. Tomasi, 
 M. Cossi, N. Rega, J. M. Millam, M. Klene, J. E. Knox, J. B. Cross, 
 V. Bakken, C. Adamo, J. Jaramillo, R. Gomperts, R. E. Stratmann, 
 O. Yazyev, A. J. Austin, R. Cammi, C. Pomelli, J. W. Ochterski, 
 R. L. Martin, K. Morokuma, V. G. Zakrzewski, G. A. Voth, 
 P. Salvador, J. J. Dannenberg, S. Dapprich, A. D. Daniels, 
 O. Farkas, J. B. Foresman, J. V. Ortiz, J. Cioslowski, 
 and D. J. Fox, Gaussian, Inc., Wallingford CT, 2010.
 
  
 -----  Compilado por  -----------------------------------------
  
  Servicio de Calculo | Servicio de Informatica U. de Valencia
     calculo@uv.es    |  E-46100 Burjassot (Valencia) SPAIN
  
 ---------------------------------------------------------------
  
 ******************************************
 Gaussian 09:  EM64L-G09RevC.01 23-Sep-2011
                20-Aug-2025 
 ******************************************
 %chk=opt_freq.chk
 %nproc=6
 Will use up to    6 processors via shared memory.
 %mem=20GB
 Default route:  CacheSize=131072
 -----------------------
 #sp wB97XD/6-311+G(3df)
 -----------------------
 1/4=131072,38=1/1;
 2/4=131072,12=2,17=6,18=5,40=1/2;
 3/4=131072,5=4,6=6,7=16,11=2,16=1,25=1,30=1,74=-58/1,2,3;
 4/4=131072/1;
 5/4=131072,5=2,38=5/2;
 6/4=131072,7=2,8=2,9=2,10=2,28=1/1;
 99/4=131072,5=1,9=1/99;
 ---------------------
 Optimizacion del hoso
 ---------------------
 Charge =  0 Multiplicity = 2
 Symbolic Z-Matrix:
 S                    -0.13684  -0.47301   0.01681 
 O                     1.31263   0.25347  -0.04604 
 O                    -1.18914   0.54694  -0.02004 
 H                     1.17752   1.15935   0.26818 
 
                          Input orientation:                          
 ---------------------------------------------------------------------
 Center     Atomic      Atomic             Coordinates (Angstroms)
 Number     Number       Type             X           Y           Z
 ---------------------------------------------------------------------
      1         16           0       -0.136843   -0.473008    0.016808
      2          8           0        1.312632    0.253471   -0.046040
      3          8           0       -1.189136    0.546938   -0.020037
      4          1           0        1.177521    1.159345    0.268181
 ---------------------------------------------------------------------
                    Distance matrix (angstroms):
                    1          2          3          4
     1  S    0.000000
     2  O    1.622560   0.000000
     3  O    1.465936   2.519056   0.000000
     4  H    2.110762   0.968296   2.461540   0.000000
 Stoichiometry    HO2S(2)
 Framework group  C1[X(HO2S)]
 Deg. of freedom     6
 Full point group                 C1      NOp   1
 Largest Abelian subgroup         C1      NOp   1
 Largest concise Abelian subgroup C1      NOp   1
                         Standard orientation:                         
 ---------------------------------------------------------------------
 Center     Atomic      Atomic             Coordinates (Angstroms)
 Number     Number       Type             X           Y           Z
 ---------------------------------------------------------------------
      1         16           0       -0.132614   -0.473832    0.016640
      2          8           0        1.311466    0.263356   -0.045703
      3          8           0       -1.192423    0.538269   -0.021094
      4          1           0        1.169477    1.168308    0.268143
 ---------------------------------------------------------------------
 Rotational constants (GHZ):     35.2273601      9.6563885      7.6043061
 Standard basis: 6-311+G(3df) (5D, 7F)
 There are   128 symmetry adapted basis functions of A   symmetry.
 Integral buffers will be    131072 words long.
 Raffenetti 2 integral format.
 Two-electron integral symmetry is turned on.
   128 basis functions,   193 primitive gaussians,   146 cartesian basis functions
    17 alpha electrons       16 beta electrons
       nuclear repulsion energy       111.4989182941 Hartrees.
 NAtoms=    4 NActive=    4 NUniq=    4 SFac= 1.00D+00 NAtFMM=   60 NAOKFM=F Big=F
 Nuclear repulsion after empirical dispersion term =      111.4986770492 Hartrees.
 One-electron integrals computed using PRISM.
 NBasis=   128 RedAO= T  NBF=   128
 NBsUse=   128 1.00D-06 NBFU=   128
 Harris functional with IExCor= 4639 diagonalized for initial guess.
 ExpMin= 4.05D-02 ExpMax= 9.34D+04 ExpMxC= 3.17D+03 IAcc=2 IRadAn=         4 AccDes= 0.00D+00
 HarFok:  IExCor= 4639 AccDes= 0.00D+00 IRadAn=         4 IDoV= 1
 ScaDFX=  1.000000  1.000000  1.000000  1.000000
 FoFCou: FMM=F IPFlag=           0 FMFlag=      100000 FMFlg1=           0
         NFxFlg=           0 DoJE=T BraDBF=F KetDBF=T FulRan=T
         Omega=  0.000000  0.000000  1.000000  0.000000  0.000000 ICntrl=     500 IOpCl=  0
         NMat0=    1 NMatS0=    1 NMatT0=    0 NMatD0=    1 NMtDS0=    0 NMtDT0=    0
         I1Cent=           4 NGrid=           0.
 Petite list used in FoFCou.
 Initial guess orbital symmetries:
 Alpha Orbitals:
       Occupied  (A) (A) (A) (A) (A) (A) (A) (A) (A) (A) (A) (A)
                 (A) (A) (A) (A) (A)
       Virtual   (A) (A) (A) (A) (A) (A) (A) (A) (A) (A) (A) (A)
                 (A) (A) (A) (A) (A) (A) (A) (A) (A) (A) (A) (A)
                 (A) (A) (A) (A) (A) (A) (A) (A) (A) (A) (A) (A)
                 (A) (A) (A) (A) (A) (A) (A) (A) (A) (A) (A) (A)
                 (A) (A) (A) (A) (A) (A) (A) (A) (A) (A) (A) (A)
                 (A) (A) (A) (A) (A) (A) (A) (A) (A) (A) (A) (A)
                 (A) (A) (A) (A) (A) (A) (A) (A) (A) (A) (A) (A)
                 (A) (A) (A) (A) (A) (A) (A) (A) (A) (A) (A) (A)
                 (A) (A) (A) (A) (A) (A) (A) (A) (A) (A) (A) (A)
                 (A) (A) (A)
 Beta  Orbitals:
       Occupied  (A) (A) (A) (A) (A) (A) (A) (A) (A) (A) (A) (A)
                 (A) (A) (A) (A)
       Virtual   (A) (A) (A) (A) (A) (A) (A) (A) (A) (A) (A) (A)
                 (A) (A) (A) (A) (A) (A) (A) (A) (A) (A) (A) (A)
                 (A) (A) (A) (A) (A) (A) (A) (A) (A) (A) (A) (A)
                 (A) (A) (A) (A) (A) (A) (A) (A) (A) (A) (A) (A)
                 (A) (A) (A) (A) (A) (A) (A) (A) (A) (A) (A) (A)
                 (A) (A) (A) (A) (A) (A) (A) (A) (A) (A) (A) (A)
                 (A) (A) (A) (A) (A) (A) (A) (A) (A) (A) (A) (A)
                 (A) (A) (A) (A) (A) (A) (A) (A) (A) (A) (A) (A)
                 (A) (A) (A) (A) (A) (A) (A) (A) (A) (A) (A) (A)
                 (A) (A) (A) (A)
 The electronic state of the initial guess is 2-A.
 Initial guess <Sx>= 0.0000 <Sy>= 0.0000 <Sz>= 0.5000 <S**2>= 0.7500 S= 0.5000
 Requested convergence on RMS density matrix=1.00D-08 within 128 cycles.
 Requested convergence on MAX density matrix=1.00D-06.
 Requested convergence on             energy=1.00D-06.
 No special actions if energy rises.
 FoFJK:  IHMeth= 1 ICntrl=     0 DoSepK=T KAlg= 1 I1Cent= 0 FoldK=F
 FoFJK:  IHMeth= 1 ICntrl=     0 DoSepK=T KAlg= 1 I1Cent= 0 FoldK=F
 FoFJK:  IHMeth= 1 ICntrl=     0 DoSepK=T KAlg= 1 I1Cent= 0 FoldK=F
 FoFJK:  IHMeth= 1 ICntrl=     0 DoSepK=T KAlg= 1 I1Cent= 0 FoldK=F
 FoFJK:  IHMeth= 1 ICntrl=     0 DoSepK=T KAlg= 1 I1Cent= 0 FoldK=F
 FoFJK:  IHMeth= 1 ICntrl=     0 DoSepK=T KAlg= 1 I1Cent= 0 FoldK=F
 FoFJK:  IHMeth= 1 ICntrl=     0 DoSepK=T KAlg= 1 I1Cent= 0 FoldK=F
 FoFJK:  IHMeth= 1 ICntrl=     0 DoSepK=T KAlg= 1 I1Cent= 0 FoldK=F
 FoFJK:  IHMeth= 1 ICntrl=     0 DoSepK=T KAlg= 1 I1Cent= 0 FoldK=F
 FoFJK:  IHMeth= 1 ICntrl=     0 DoSepK=T KAlg= 1 I1Cent= 0 FoldK=F
 FoFJK:  IHMeth= 1 ICntrl=     0 DoSepK=T KAlg= 1 I1Cent= 0 FoldK=F
 FoFJK:  IHMeth= 1 ICntrl=     0 DoSepK=T KAlg= 1 I1Cent= 0 FoldK=F
 FoFJK:  IHMeth= 1 ICntrl=     0 DoSepK=T KAlg= 1 I1Cent= 0 FoldK=F
 FoFJK:  IHMeth= 1 ICntrl=     0 DoSepK=T KAlg= 1 I1Cent= 0 FoldK=F
 FoFJK:  IHMeth= 1 ICntrl=     0 DoSepK=T KAlg= 1 I1Cent= 0 FoldK=F
 SCF Done:  E(UwB97XD) =  -549.221004547     A.U. after   15 cycles
             Convg  =    0.6706D-08             -V/T =  2.0017
 <Sx>= 0.0000 <Sy>= 0.0000 <Sz>= 0.5000 <S**2>= 0.7555 S= 0.5027
 <L.S>= 0.000000000000E+00
 Annihilation of the first spin contaminant:
 S**2 before annihilation     0.7555,   after     0.7500

 **********************************************************************

            Population analysis using the SCF density.

 **********************************************************************

 Orbital symmetries:
 Alpha Orbitals:
       Occupied  (A) (A) (A) (A) (A) (A) (A) (A) (A) (A) (A) (A)
                 (A) (A) (A) (A) (A)
       Virtual   (A) (A) (A) (A) (A) (A) (A) (A) (A) (A) (A) (A)
                 (A) (A) (A) (A) (A) (A) (A) (A) (A) (A) (A) (A)
                 (A) (A) (A) (A) (A) (A) (A) (A) (A) (A) (A) (A)
                 (A) (A) (A) (A) (A) (A) (A) (A) (A) (A) (A) (A)
                 (A) (A) (A) (A) (A) (A) (A) (A) (A) (A) (A) (A)
                 (A) (A) (A) (A) (A) (A) (A) (A) (A) (A) (A) (A)
                 (A) (A) (A) (A) (A) (A) (A) (A) (A) (A) (A) (A)
                 (A) (A) (A) (A) (A) (A) (A) (A) (A) (A) (A) (A)
                 (A) (A) (A) (A) (A) (A) (A) (A) (A) (A) (A) (A)
                 (A) (A) (A)
 Beta  Orbitals:
       Occupied  (A) (A) (A) (A) (A) (A) (A) (A) (A) (A) (A) (A)
                 (A) (A) (A) (A)
       Virtual   (A) (A) (A) (A) (A) (A) (A) (A) (A) (A) (A) (A)
                 (A) (A) (A) (A) (A) (A) (A) (A) (A) (A) (A) (A)
                 (A) (A) (A) (A) (A) (A) (A) (A) (A) (A) (A) (A)
                 (A) (A) (A) (A) (A) (A) (A) (A) (A) (A) (A) (A)
                 (A) (A) (A) (A) (A) (A) (A) (A) (A) (A) (A) (A)
                 (A) (A) (A) (A) (A) (A) (A) (A) (A) (A) (A) (A)
                 (A) (A) (A) (A) (A) (A) (A) (A) (A) (A) (A) (A)
                 (A) (A) (A) (A) (A) (A) (A) (A) (A) (A) (A) (A)
                 (A) (A) (A) (A) (A) (A) (A) (A) (A) (A) (A) (A)
                 (A) (A) (A) (A)
 The electronic state is 2-A.
 Alpha  occ. eigenvalues --  -89.14922 -19.32055 -19.28425  -8.17680  -6.12605
 Alpha  occ. eigenvalues --   -6.12375  -6.12019  -1.22656  -1.14999  -0.79881
 Alpha  occ. eigenvalues --   -0.63369  -0.57613  -0.56644  -0.50675  -0.47247
 Alpha  occ. eigenvalues --   -0.42544  -0.31004
 Alpha virt. eigenvalues --    0.05042   0.06789   0.07560   0.09348   0.11678
 Alpha virt. eigenvalues --    0.13373   0.19061   0.22337   0.24484   0.24870
 Alpha virt. eigenvalues --    0.26324   0.27987   0.30340   0.32421   0.32854
 Alpha virt. eigenvalues --    0.35606   0.36486   0.37857   0.39060   0.40350
 Alpha virt. eigenvalues --    0.41055   0.50674   0.56616   0.68121   0.78135
 Alpha virt. eigenvalues --    0.81297   0.87198   0.87727   0.93771   0.96020
 Alpha virt. eigenvalues --    0.96927   0.97496   1.00198   1.02408   1.05635
 Alpha virt. eigenvalues --    1.09065   1.10180   1.11850   1.13934   1.17316
 Alpha virt. eigenvalues --    1.22217   1.28846   1.33190   1.38185   1.39362
 Alpha virt. eigenvalues --    1.43279   1.66887   1.68212   1.74329   1.80426
 Alpha virt. eigenvalues --    1.92106   2.01647   2.08013   2.08765   2.12504
 Alpha virt. eigenvalues --    2.20388   2.31181   2.36318   2.46434   3.37094
 Alpha virt. eigenvalues --    3.42082   3.45116   3.47567   3.49942   3.55426
 Alpha virt. eigenvalues --    3.56427   3.63334   3.70172   3.71381   4.53291
 Alpha virt. eigenvalues --    4.57254   4.61269   4.71061   4.90591   4.98471
 Alpha virt. eigenvalues --    5.03143   5.03808   5.04068   5.06975   5.09027
 Alpha virt. eigenvalues --    5.09783   5.11218   5.16613   5.23761   5.24834
 Alpha virt. eigenvalues --    5.41398   5.45680   5.53607   5.57400   5.66356
 Alpha virt. eigenvalues --    5.72482   5.84898   5.99693   6.58337   8.76872
 Alpha virt. eigenvalues --   14.32056  14.35583  14.37041  14.39043  14.41247
 Alpha virt. eigenvalues --   14.45048  14.46359  14.49050  14.62563  14.70706
 Alpha virt. eigenvalues --   17.36155  17.61553  17.89248  50.02450  50.10874
 Alpha virt. eigenvalues --  189.81203
  Beta  occ. eigenvalues --  -89.14536 -19.31810 -19.27539  -8.17335  -6.12376
  Beta  occ. eigenvalues --   -6.11811  -6.11133  -1.21558  -1.13485  -0.77571
  Beta  occ. eigenvalues --   -0.62089  -0.56829  -0.53251  -0.48630  -0.43493
  Beta  occ. eigenvalues --   -0.41318
  Beta virt. eigenvalues --   -0.03934   0.05494   0.07144   0.08017   0.09942
  Beta virt. eigenvalues --    0.12690   0.14034   0.19379   0.22557   0.24801
  Beta virt. eigenvalues --    0.25069   0.26745   0.28400   0.30630   0.32611
  Beta virt. eigenvalues --    0.33979   0.35874   0.36986   0.38556   0.40358
  Beta virt. eigenvalues --    0.40920   0.41783   0.51266   0.56836   0.68634
  Beta virt. eigenvalues --    0.78684   0.81576   0.87767   0.88444   0.94428
  Beta virt. eigenvalues --    0.96378   0.97808   0.98582   1.01136   1.03103
  Beta virt. eigenvalues --    1.06367   1.09987   1.11828   1.12654   1.14293
  Beta virt. eigenvalues --    1.18173   1.23484   1.29347   1.34452   1.38949
  Beta virt. eigenvalues --    1.39822   1.43634   1.70061   1.70149   1.75957
  Beta virt. eigenvalues --    1.81979   1.92896   2.03017   2.08675   2.11105
  Beta virt. eigenvalues --    2.12976   2.20847   2.31675   2.37270   2.46863
  Beta virt. eigenvalues --    3.37971   3.43533   3.47402   3.48630   3.51344
  Beta virt. eigenvalues --    3.56983   3.58008   3.64021   3.71250   3.71849
  Beta virt. eigenvalues --    4.53833   4.57418   4.62132   4.71536   4.91177
  Beta virt. eigenvalues --    4.99032   5.03830   5.04603   5.04806   5.08294
  Beta virt. eigenvalues --    5.11699   5.12717   5.13234   5.17428   5.24721
  Beta virt. eigenvalues --    5.26111   5.41994   5.46205   5.54378   5.58165
  Beta virt. eigenvalues --    5.67288   5.73023   5.86561   6.00206   6.58746
  Beta virt. eigenvalues --    8.77233  14.33322  14.37867  14.40107  14.41067
  Beta virt. eigenvalues --   14.43515  14.46566  14.49021  14.50423  14.63146
  Beta virt. eigenvalues --   14.72727  17.37550  17.61842  17.89569  50.02687
  Beta virt. eigenvalues --   50.11656 189.81509
          Condensed to atoms (all electrons):
              1          2          3          4
     1  S   15.366101  -0.021877   0.140349   0.010244
     2  O   -0.021877   8.422659   0.005836   0.209459
     3  O    0.140349   0.005836   8.238783  -0.000333
     4  H    0.010244   0.209459  -0.000333   0.285098
 Mulliken atomic charges:
              1
     1  S    0.505182
     2  O   -0.616078
     3  O   -0.384636
     4  H    0.495531
 Sum of Mulliken atomic charges =   0.00000
 Mulliken charges with hydrogens summed into heavy atoms:
              1
     1  S    0.505182
     2  O   -0.120547
     3  O   -0.384636
 Sum of Mulliken charges with hydrogens summed into heavy atoms =   0.00000
          Atomic-Atomic Spin Densities.
              1          2          3          4
     1  S    0.942808  -0.104964  -0.196255  -0.000795
     2  O   -0.104964   0.149300   0.018849  -0.004296
     3  O   -0.196255   0.018849   0.477056  -0.000405
     4  H   -0.000795  -0.004296  -0.000405   0.006569
 Mulliken atomic spin densities:
              1
     1  S    0.640794
     2  O    0.058889
     3  O    0.299245
     4  H    0.001072
 Sum of Mulliken atomic spin densities =   1.00000
 Electronic spatial extent (au):  <R**2>=            177.1169
 Charge=              0.0000 electrons
 Dipole moment (field-independent basis, Debye):
    X=              1.2617    Y=              0.0702    Z=              0.5452  Tot=              1.3762
 Quadrupole moment (field-independent basis, Debye-Ang):
   XX=            -26.8101   YY=            -21.1169   ZZ=            -23.5816
   XY=              3.1857   XZ=              0.6660   YZ=              0.8701
 Traceless Quadrupole moment (field-independent basis, Debye-Ang):
   XX=             -2.9739   YY=              2.7193   ZZ=              0.2546
   XY=              3.1857   XZ=              0.6660   YZ=              0.8701
 Octapole moment (field-independent basis, Debye-Ang**2):
  XXX=              1.2834  YYY=              5.1703  ZZZ=             -0.0253  XYY=              4.3509
  XXY=              0.6878  XXZ=              0.7721  XZZ=              0.1745  YZZ=              1.2145
  YYZ=              1.0212  XYZ=              1.0104
 Hexadecapole moment (field-independent basis, Debye-Ang**3):
 XXXX=           -141.3282 YYYY=            -51.5941 ZZZZ=            -24.9455 XXXY=              5.2118
 XXXZ=              1.0212 YYYX=              5.9086 YYYZ=              1.4390 ZZZX=              0.3571
 ZZZY=              0.6068 XXYY=            -27.0438 XXZZ=            -26.8119 YYZZ=            -13.7905
 XXYZ=              1.3437 YYXZ=              1.1926 ZZXY=              0.4477
 N-N= 1.114986770492D+02 E-N=-2.282066772470D+03  KE= 8.210348840842D+02
                          Isotropic Fermi Contact Couplings
        Atom                 a.u.       MegaHertz       Gauss      10(-4) cm-1
     1  S(33)              0.10439      35.85518      12.79402      11.96000
     2  O(17)              0.02086     -12.64623      -4.51249      -4.21833
     3  O(17)              0.05205     -31.55030     -11.25793     -10.52405
     4  H(1)               0.00067       2.98180       1.06398       0.99462
 --------------------------------------------------------
       Center         ----  Spin Dipole Couplings  ----
                      3XX-RR        3YY-RR        3ZZ-RR
 --------------------------------------------------------
     1   Atom       -1.509718     -1.617908      3.127626
     2   Atom       -0.240476     -0.204786      0.445262
     3   Atom       -0.772526     -0.774596      1.547123
     4   Atom       -0.008502      0.020295     -0.011793
 --------------------------------------------------------
                        XY            XZ            YZ
 --------------------------------------------------------
     1   Atom       -0.002108     -0.042708      0.200270
     2   Atom        0.006623      0.015848     -0.113493
     3   Atom        0.006038      0.088827      0.048268
     4   Atom        0.003447      0.001028      0.005131
 --------------------------------------------------------


 ---------------------------------------------------------------------------------
              Anisotropic Spin Dipole Couplings in Principal Axis System
 ---------------------------------------------------------------------------------

       Atom             a.u.   MegaHertz   Gauss  10(-4) cm-1        Axes

              Baa    -1.6263   -66.679   -23.793   -22.242  0.0027  0.9991 -0.0421
     1 S(33)  Bbb    -1.5101   -61.913   -22.092   -20.652  1.0000 -0.0023  0.0093
              Bcc     3.1365   128.592    45.885    42.894 -0.0092  0.0421  0.9991
 
              Baa    -0.2448    17.715     6.321     5.909  0.9147 -0.3950 -0.0860
     2 O(17)  Bbb    -0.2200    15.918     5.680     5.310  0.4037  0.9034  0.1445
              Bcc     0.4648   -33.633   -12.001   -11.219  0.0206 -0.1669  0.9858
 
              Baa    -0.7800    56.437    20.138    18.825  0.7204 -0.6935 -0.0131
     3 O(17)  Bbb    -0.7716    55.831    19.922    18.623  0.6925  0.7202 -0.0415
              Bcc     1.5515  -112.268   -40.060   -37.448  0.0382  0.0208  0.9991
 
              Baa    -0.0127    -6.753    -2.409    -2.252 -0.1272 -0.1396  0.9820
     4 H(1)   Bbb    -0.0089    -4.729    -1.687    -1.577  0.9848 -0.1355  0.1083
              Bcc     0.0215    11.481     4.097     3.830  0.1179  0.9809  0.1547
 

 ---------------------------------------------------------------------------------

 1\1\ CPUSERV-QCEXNOD15\SP\UwB97XD\6-311+G(3df)\H1O2S1(2)\VPEREZ\20-Aug
 -2025\0\\#sp wB97XD/6-311+G(3df)\\Optimizacion del hoso\\0,2\S,0,-0.13
 6843,-0.473008,0.016808\O,0,1.312632,0.253471,-0.04604\O,0,-1.189136,0
 .546938,-0.020037\H,0,1.177521,1.159345,0.268181\\Version=EM64L-G09Rev
 C.01\State=2-A\HF=-549.2210045\S2=0.755507\S2-1=0.\S2A=0.750021\RMSD=6
 .706e-09\Dipole=0.4966788,0.0238607,0.2142439\Quadrupole=-2.1751368,1.
 9859273,0.1892096,2.3998091,0.5019381,0.6425389\PG=C01 [X(H1O2S1)]\\@


 MATERIAL COPIED FROM ONE SCHOLARLY BOOK WITHOUT CREDIT COMPRISES PLAGIARISM.
 MATERIAL COPIED FROM TWO SCHOLARLY BOOKS COMPRISES AN ESSAY.
 MATERIAL COPIED FROM THREE SCHOLARLY BOOKS COMPRISES A DISSERTATION.
 MATERIAL COPIED FROM FOUR SCHOLARLY BOOKS COMPRISES A FIFTH SCHOLARLY BOOK.

                               -- C&EN, 25 FEB 1980
 Job cpu time:  0 days  0 hours  5 minutes 36.3 seconds.
 File lengths (MBytes):  RWF=     21 Int=      0 D2E=      0 Chk=      2 Scr=      1
 Normal termination of Gaussian 09 at Wed Aug 20 23:00:01 2025.
