 Entering Gaussian System, Link 0=g09
 Initial command:
 /soft/g09.c01/g09/l1.exe /scr/macias/hoso/Gau-15062.inp -scrdir=/scr/macias/hoso/
 Entering Link 1 = /soft/g09.c01/g09/l1.exe PID=     15063.
  
 Copyright (c) 1988,1990,1992,1993,1995,1998,2003,2009,2011,
            Gaussian, Inc.  All Rights Reserved.
  
 This is part of the Gaussian(R) 09 program.  It is based on
 the Gaussian(R) 03 system (copyright 2003, Gaussian, Inc.),
 the Gaussian(R) 98 system (copyright 1998, Gaussian, Inc.),
 the Gaussian(R) 94 system (copyright 1995, Gaussian, Inc.),
 the Gaussian 92(TM) system (copyright 1992, Gaussian, Inc.),
 the Gaussian 90(TM) system (copyright 1990, Gaussian, Inc.),
 the Gaussian 88(TM) system (copyright 1988, Gaussian, Inc.),
 the Gaussian 86(TM) system (copyright 1986, Carnegie Mellon
 University), and the Gaussian 82(TM) system (copyright 1983,
 Carnegie Mellon University). Gaussian is a federally registered
 trademark of Gaussian, Inc.
  
 This software contains proprietary and confidential information,
 including trade secrets, belonging to Gaussian, Inc.
  
 This software is provided under written license and may be
 used, copied, transmitted, or stored only in accord with that
 written license.
  
 The following legend is applicable only to US Government
 contracts under FAR:
  
                    RESTRICTED RIGHTS LEGEND
  
 Use, reproduction and disclosure by the US Government is
 subject to restrictions as set forth in subparagraphs (a)
 and (c) of the Commercial Computer Software - Restricted
 Rights clause in FAR 52.227-19.
  
 Gaussian, Inc.
 340 Quinnipiac St., Bldg. 40, Wallingford CT 06492
  
  
 ---------------------------------------------------------------
 Warning -- This program may not be used in any manner that
 competes with the business of Gaussian, Inc. or will provide
 assistance to any competitor of Gaussian, Inc.  The licensee
 of this program is prohibited from giving any competitor of
 Gaussian, Inc. access to this program.  By using this program,
 the user acknowledges that Gaussian, Inc. is engaged in the
 business of creating and licensing software in the field of
 computational chemistry and represents and warrants to the
 licensee that it is not a competitor of Gaussian, Inc. and that
 it will not use this program in any manner prohibited above.
 ---------------------------------------------------------------
  

 Cite this work as:
 Gaussian 09, Revision C.01,
 M. J. Frisch, G. W. Trucks, H. B. Schlegel, G. E. Scuseria, 
 M. A. Robb, J. R. Cheeseman, G. Scalmani, V. Barone, B. Mennucci, 
 G. A. Petersson, H. Nakatsuji, M. Caricato, X. Li, H. P. Hratchian, 
 A. F. Izmaylov, J. Bloino, G. Zheng, J. L. Sonnenberg, M. Hada, 
 M. Ehara, K. Toyota, R. Fukuda, J. Hasegawa, M. Ishida, T. Nakajima, 
 Y. Honda, O. Kitao, H. Nakai, T. Vreven, J. A. Montgomery, Jr., 
 J. E. Peralta, F. Ogliaro, M. Bearpark, J. J. Heyd, E. Brothers, 
 K. N. Kudin, V. N. Staroverov, T. Keith, R. Kobayashi, J. Normand, 
 K. Raghavachari, A. Rendell, J. C. Burant, S. S. Iyengar, J. Tomasi, 
 M. Cossi, N. Rega, J. M. Millam, M. Klene, J. E. Knox, J. B. Cross, 
 V. Bakken, C. Adamo, J. Jaramillo, R. Gomperts, R. E. Stratmann, 
 O. Yazyev, A. J. Austin, R. Cammi, C. Pomelli, J. W. Ochterski, 
 R. L. Martin, K. Morokuma, V. G. Zakrzewski, G. A. Voth, 
 P. Salvador, J. J. Dannenberg, S. Dapprich, A. D. Daniels, 
 O. Farkas, J. B. Foresman, J. V. Ortiz, J. Cioslowski, 
 and D. J. Fox, Gaussian, Inc., Wallingford CT, 2010.
 
  
 -----  Compilado por  -----------------------------------------
  
  Servicio de Calculo | Servicio de Informatica U. de Valencia
     calculo@uv.es    |  E-46100 Burjassot (Valencia) SPAIN
  
 ---------------------------------------------------------------
  
 ******************************************
 Gaussian 09:  EM64L-G09RevC.01 23-Sep-2011
                 4-Feb-2025 
 ******************************************
 %chk=opt_freq.chk
 %nproc=6
 Will use up to    6 processors via shared memory.
 %mem=20GB
 Default route:  CacheSize=131072
 ------------------------------------------------------------------
 # wB97XD/6-311+G(3df) opt=verytight freq=anharm integral=ultrafine
 ------------------------------------------------------------------
 1/4=131072,7=1,14=-1,18=20,19=15,26=3,38=1,80=1/1,3;
 2/4=131072,9=110,12=2,17=6,18=5,40=1/2;
 3/4=131072,5=4,6=6,7=16,11=2,16=1,25=1,30=1,71=1,74=-58,75=-5/1,2,3;
 4/4=131072/1;
 5/4=131072,5=2,38=5/2;
 6/4=131072,7=2,8=2,9=2,10=2,28=1/1;
 7/4=131072/1,2,3,16;
 1/4=131072,7=1,14=-1,18=20,19=15,80=1/3(2);
 2/4=131072,9=110/2;
 99/4=131072,8=1000/99;
 2/4=131072,9=110/2;
 3/4=131072,5=4,6=6,7=16,11=2,16=1,25=1,30=1,71=1,74=-58,75=-5/1,2,3;
 4/4=131072,5=5,16=3/1;
 5/4=131072,5=2,38=5/2;
 7/4=131072/1,2,3,16;
 1/4=131072,7=1,14=-1,18=20,19=15,80=1/3(-5);
 2/4=131072,9=110/2;
 6/4=131072,7=2,8=2,9=2,10=2,19=2,28=1/1;
 99/4=131072,8=1000,9=1/99;
 ---------------------
 Optimizacion del hoso
 ---------------------
 Charge =  0 Multiplicity = 2
 Symbolic Z-Matrix:
 S                    -0.14317  -0.47768   0.01442 
 O                     1.32848   0.2561   -0.03946 
 O                    -1.19626   0.55127  -0.01789 
 H                     1.233     1.18386   0.22807 
 

 GradGradGradGradGradGradGradGradGradGradGradGradGradGradGradGradGradGrad
 Berny optimization.
 Initialization pass.
                           ----------------------------
                           !    Initial Parameters    !
                           ! (Angstroms and Degrees)  !
 --------------------------                            --------------------------
 ! Name  Definition              Value          Derivative Info.                !
 --------------------------------------------------------------------------------
 ! R1    R(1,2)                  1.6453         estimate D2E/DX2                !
 ! R2    R(1,3)                  1.4727         estimate D2E/DX2                !
 ! R3    R(2,4)                  0.9703         estimate D2E/DX2                !
 ! A1    A(2,1,3)              109.1043         estimate D2E/DX2                !
 ! A2    A(1,2,4)              109.2316         estimate D2E/DX2                !
 ! D1    D(3,1,2,4)             19.6564         estimate D2E/DX2                !
 --------------------------------------------------------------------------------
 Trust Radius=3.00D-01 FncErr=1.00D-07 GrdErr=1.00D-06
 Number of steps in this run=     20 maximum allowed number of steps=    100.
 GradGradGradGradGradGradGradGradGradGradGradGradGradGradGradGradGradGrad

                          Input orientation:                          
 ---------------------------------------------------------------------
 Center     Atomic      Atomic             Coordinates (Angstroms)
 Number     Number       Type             X           Y           Z
 ---------------------------------------------------------------------
      1         16           0       -0.143170   -0.477675    0.014424
      2          8           0        1.328478    0.256100   -0.039462
      3          8           0       -1.196263    0.551268   -0.017893
      4          1           0        1.232996    1.183862    0.228065
 ---------------------------------------------------------------------
                    Distance matrix (angstroms):
                    1          2          3          4
     1  S    0.000000
     2  O    1.645320   0.000000
     3  O    1.472675   2.542028   0.000000
     4  H    2.167990   0.970273   2.522295   0.000000
 Stoichiometry    HO2S(2)
 Framework group  C1[X(HO2S)]
 Deg. of freedom     6
 Full point group                 C1      NOp   1
 Largest Abelian subgroup         C1      NOp   1
 Largest concise Abelian subgroup C1      NOp   1
                         Standard orientation:                         
 ---------------------------------------------------------------------
 Center     Atomic      Atomic             Coordinates (Angstroms)
 Number     Number       Type             X           Y           Z
 ---------------------------------------------------------------------
      1         16           0       -0.143170   -0.477675    0.014424
      2          8           0        1.328478    0.256099   -0.039462
      3          8           0       -1.196263    0.551268   -0.017893
      4          1           0        1.232997    1.183861    0.228065
 ---------------------------------------------------------------------
 Rotational constants (GHZ):     34.5493612      9.4602417      7.4444941
 Standard basis: 6-311+G(3df) (5D, 7F)
 There are   128 symmetry adapted basis functions of A   symmetry.
 Integral buffers will be    131072 words long.
 Raffenetti 2 integral format.
 Two-electron integral symmetry is turned on.
   128 basis functions,   193 primitive gaussians,   146 cartesian basis functions
    17 alpha electrons       16 beta electrons
       nuclear repulsion energy       110.4322653004 Hartrees.
 NAtoms=    4 NActive=    4 NUniq=    4 SFac= 1.00D+00 NAtFMM=   60 NAOKFM=F Big=F
 Nuclear repulsion after empirical dispersion term =      110.4320050415 Hartrees.
 One-electron integrals computed using PRISM.
 NBasis=   128 RedAO= T  NBF=   128
 NBsUse=   128 1.00D-06 NBFU=   128
 Harris functional with IExCor= 4639 diagonalized for initial guess.
 ExpMin= 4.05D-02 ExpMax= 9.34D+04 ExpMxC= 3.17D+03 IAcc=3 IRadAn=         5 AccDes= 0.00D+00
 HarFok:  IExCor= 4639 AccDes= 0.00D+00 IRadAn=         5 IDoV= 1
 ScaDFX=  1.000000  1.000000  1.000000  1.000000
 FoFCou: FMM=F IPFlag=           0 FMFlag=      100000 FMFlg1=           0
         NFxFlg=           0 DoJE=T BraDBF=F KetDBF=T FulRan=T
         Omega=  0.000000  0.000000  1.000000  0.000000  0.000000 ICntrl=     500 IOpCl=  0
         NMat0=    1 NMatS0=    1 NMatT0=    0 NMatD0=    1 NMtDS0=    0 NMtDT0=    0
         I1Cent=           4 NGrid=           0.
 Petite list used in FoFCou.
 Initial guess orbital symmetries:
 Alpha Orbitals:
       Occupied  (A) (A) (A) (A) (A) (A) (A) (A) (A) (A) (A) (A)
                 (A) (A) (A) (A) (A)
       Virtual   (A) (A) (A) (A) (A) (A) (A) (A) (A) (A) (A) (A)
                 (A) (A) (A) (A) (A) (A) (A) (A) (A) (A) (A) (A)
                 (A) (A) (A) (A) (A) (A) (A) (A) (A) (A) (A) (A)
                 (A) (A) (A) (A) (A) (A) (A) (A) (A) (A) (A) (A)
                 (A) (A) (A) (A) (A) (A) (A) (A) (A) (A) (A) (A)
                 (A) (A) (A) (A) (A) (A) (A) (A) (A) (A) (A) (A)
                 (A) (A) (A) (A) (A) (A) (A) (A) (A) (A) (A) (A)
                 (A) (A) (A) (A) (A) (A) (A) (A) (A) (A) (A) (A)
                 (A) (A) (A) (A) (A) (A) (A) (A) (A) (A) (A) (A)
                 (A) (A) (A)
 Beta  Orbitals:
       Occupied  (A) (A) (A) (A) (A) (A) (A) (A) (A) (A) (A) (A)
                 (A) (A) (A) (A)
       Virtual   (A) (A) (A) (A) (A) (A) (A) (A) (A) (A) (A) (A)
                 (A) (A) (A) (A) (A) (A) (A) (A) (A) (A) (A) (A)
                 (A) (A) (A) (A) (A) (A) (A) (A) (A) (A) (A) (A)
                 (A) (A) (A) (A) (A) (A) (A) (A) (A) (A) (A) (A)
                 (A) (A) (A) (A) (A) (A) (A) (A) (A) (A) (A) (A)
                 (A) (A) (A) (A) (A) (A) (A) (A) (A) (A) (A) (A)
                 (A) (A) (A) (A) (A) (A) (A) (A) (A) (A) (A) (A)
                 (A) (A) (A) (A) (A) (A) (A) (A) (A) (A) (A) (A)
                 (A) (A) (A) (A) (A) (A) (A) (A) (A) (A) (A) (A)
                 (A) (A) (A) (A)
 The electronic state of the initial guess is 2-A.
 Initial guess <Sx>= 0.0000 <Sy>= 0.0000 <Sz>= 0.5000 <S**2>= 0.7500 S= 0.5000
 Requested convergence on RMS density matrix=1.00D-08 within 128 cycles.
 Requested convergence on MAX density matrix=1.00D-06.
 Requested convergence on             energy=1.00D-06.
 No special actions if energy rises.
 FoFJK:  IHMeth= 1 ICntrl=     0 DoSepK=T KAlg= 1 I1Cent= 0 FoldK=F
 FoFJK:  IHMeth= 1 ICntrl=     0 DoSepK=T KAlg= 1 I1Cent= 0 FoldK=F
 FoFJK:  IHMeth= 1 ICntrl=     0 DoSepK=T KAlg= 1 I1Cent= 0 FoldK=F
 FoFJK:  IHMeth= 1 ICntrl=     0 DoSepK=T KAlg= 1 I1Cent= 0 FoldK=F
 FoFJK:  IHMeth= 1 ICntrl=     0 DoSepK=T KAlg= 1 I1Cent= 0 FoldK=F
 FoFJK:  IHMeth= 1 ICntrl=     0 DoSepK=T KAlg= 1 I1Cent= 0 FoldK=F
 FoFJK:  IHMeth= 1 ICntrl=     0 DoSepK=T KAlg= 1 I1Cent= 0 FoldK=F
 FoFJK:  IHMeth= 1 ICntrl=     0 DoSepK=T KAlg= 1 I1Cent= 0 FoldK=F
 FoFJK:  IHMeth= 1 ICntrl=     0 DoSepK=T KAlg= 1 I1Cent= 0 FoldK=F
 FoFJK:  IHMeth= 1 ICntrl=     0 DoSepK=T KAlg= 1 I1Cent= 0 FoldK=F
 FoFJK:  IHMeth= 1 ICntrl=     0 DoSepK=T KAlg= 1 I1Cent= 0 FoldK=F
 FoFJK:  IHMeth= 1 ICntrl=     0 DoSepK=T KAlg= 1 I1Cent= 0 FoldK=F
 FoFJK:  IHMeth= 1 ICntrl=     0 DoSepK=T KAlg= 1 I1Cent= 0 FoldK=F
 FoFJK:  IHMeth= 1 ICntrl=     0 DoSepK=T KAlg= 1 I1Cent= 0 FoldK=F
 FoFJK:  IHMeth= 1 ICntrl=     0 DoSepK=T KAlg= 1 I1Cent= 0 FoldK=F
 SCF Done:  E(UwB97XD) =  -549.220871515     A.U. after   15 cycles
             Convg  =    0.7605D-08             -V/T =  2.0018
 <Sx>= 0.0000 <Sy>= 0.0000 <Sz>= 0.5000 <S**2>= 0.7555 S= 0.5028
 <L.S>= 0.000000000000E+00
 Annihilation of the first spin contaminant:
 S**2 before annihilation     0.7555,   after     0.7500

 **********************************************************************

            Population analysis using the SCF density.

 **********************************************************************

 Orbital symmetries:
 Alpha Orbitals:
       Occupied  (A) (A) (A) (A) (A) (A) (A) (A) (A) (A) (A) (A)
                 (A) (A) (A) (A) (A)
       Virtual   (A) (A) (A) (A) (A) (A) (A) (A) (A) (A) (A) (A)
                 (A) (A) (A) (A) (A) (A) (A) (A) (A) (A) (A) (A)
                 (A) (A) (A) (A) (A) (A) (A) (A) (A) (A) (A) (A)
                 (A) (A) (A) (A) (A) (A) (A) (A) (A) (A) (A) (A)
                 (A) (A) (A) (A) (A) (A) (A) (A) (A) (A) (A) (A)
                 (A) (A) (A) (A) (A) (A) (A) (A) (A) (A) (A) (A)
                 (A) (A) (A) (A) (A) (A) (A) (A) (A) (A) (A) (A)
                 (A) (A) (A) (A) (A) (A) (A) (A) (A) (A) (A) (A)
                 (A) (A) (A) (A) (A) (A) (A) (A) (A) (A) (A) (A)
                 (A) (A) (A)
 Beta  Orbitals:
       Occupied  (A) (A) (A) (A) (A) (A) (A) (A) (A) (A) (A) (A)
                 (A) (A) (A) (A)
       Virtual   (A) (A) (A) (A) (A) (A) (A) (A) (A) (A) (A) (A)
                 (A) (A) (A) (A) (A) (A) (A) (A) (A) (A) (A) (A)
                 (A) (A) (A) (A) (A) (A) (A) (A) (A) (A) (A) (A)
                 (A) (A) (A) (A) (A) (A) (A) (A) (A) (A) (A) (A)
                 (A) (A) (A) (A) (A) (A) (A) (A) (A) (A) (A) (A)
                 (A) (A) (A) (A) (A) (A) (A) (A) (A) (A) (A) (A)
                 (A) (A) (A) (A) (A) (A) (A) (A) (A) (A) (A) (A)
                 (A) (A) (A) (A) (A) (A) (A) (A) (A) (A) (A) (A)
                 (A) (A) (A) (A) (A) (A) (A) (A) (A) (A) (A) (A)
                 (A) (A) (A) (A)
 The electronic state is 2-A.
 Alpha  occ. eigenvalues --  -89.15187 -19.31709 -19.28637  -8.17897  -6.12828
 Alpha  occ. eigenvalues --   -6.12586  -6.12244  -1.21726  -1.14595  -0.79964
 Alpha  occ. eigenvalues --   -0.63095  -0.57016  -0.56260  -0.50556  -0.47069
 Alpha  occ. eigenvalues --   -0.42485  -0.31248
 Alpha virt. eigenvalues --    0.04710   0.06658   0.07471   0.09380   0.11288
 Alpha virt. eigenvalues --    0.13226   0.18933   0.22559   0.24495   0.24888
 Alpha virt. eigenvalues --    0.26408   0.28045   0.30242   0.32413   0.32817
 Alpha virt. eigenvalues --    0.35409   0.36396   0.37701   0.39004   0.40007
 Alpha virt. eigenvalues --    0.41037   0.50354   0.56427   0.67760   0.78319
 Alpha virt. eigenvalues --    0.81012   0.87240   0.87760   0.94059   0.96219
 Alpha virt. eigenvalues --    0.97145   0.97690   0.99952   1.02120   1.05254
 Alpha virt. eigenvalues --    1.09034   1.09943   1.12103   1.13760   1.16706
 Alpha virt. eigenvalues --    1.21345   1.27764   1.32671   1.38145   1.39727
 Alpha virt. eigenvalues --    1.43179   1.66797   1.67885   1.74064   1.80063
 Alpha virt. eigenvalues --    1.92063   2.01412   2.06543   2.08469   2.12091
 Alpha virt. eigenvalues --    2.20450   2.31741   2.35229   2.44839   3.37264
 Alpha virt. eigenvalues --    3.41729   3.45086   3.47764   3.49918   3.55042
 Alpha virt. eigenvalues --    3.56352   3.63682   3.69633   3.70959   4.53228
 Alpha virt. eigenvalues --    4.56636   4.60754   4.69202   4.90049   4.98754
 Alpha virt. eigenvalues --    5.03400   5.04044   5.04522   5.06746   5.08717
 Alpha virt. eigenvalues --    5.09640   5.11086   5.15807   5.23193   5.23910
 Alpha virt. eigenvalues --    5.40928   5.44599   5.51304   5.56278   5.65205
 Alpha virt. eigenvalues --    5.70961   5.83407   5.98310   6.54685   8.73078
 Alpha virt. eigenvalues --   14.32296  14.35296  14.36899  14.39278  14.41120
 Alpha virt. eigenvalues --   14.44956  14.46417  14.48994  14.61044  14.70210
 Alpha virt. eigenvalues --   17.35740  17.60264  17.86963  50.02255  50.10360
 Alpha virt. eigenvalues --  189.77280
  Beta  occ. eigenvalues --  -89.14801 -19.31465 -19.27738  -8.17553  -6.12601
  Beta  occ. eigenvalues --   -6.12036  -6.11345  -1.20554  -1.13125  -0.77601
  Beta  occ. eigenvalues --   -0.61856  -0.56237  -0.52648  -0.48686  -0.43238
  Beta  occ. eigenvalues --   -0.41295
  Beta virt. eigenvalues --   -0.04179   0.05248   0.06987   0.07946   0.09957
  Beta virt. eigenvalues --    0.12206   0.13880   0.19208   0.22789   0.24832
  Beta virt. eigenvalues --    0.25068   0.26922   0.28414   0.30524   0.32570
  Beta virt. eigenvalues --    0.33982   0.35675   0.36872   0.38466   0.40336
  Beta virt. eigenvalues --    0.40693   0.41545   0.50957   0.56618   0.68272
  Beta virt. eigenvalues --    0.78867   0.81346   0.87786   0.88494   0.94713
  Beta virt. eigenvalues --    0.96563   0.97960   0.98839   1.00853   1.02887
  Beta virt. eigenvalues --    1.06038   1.09896   1.11861   1.12551   1.14138
  Beta virt. eigenvalues --    1.17544   1.22647   1.28218   1.34105   1.38932
  Beta virt. eigenvalues --    1.40118   1.43514   1.69719   1.70022   1.75665
  Beta virt. eigenvalues --    1.81631   1.92872   2.02871   2.07343   2.10767
  Beta virt. eigenvalues --    2.12346   2.20915   2.32219   2.36149   2.45303
  Beta virt. eigenvalues --    3.38173   3.43238   3.47459   3.48744   3.51319
  Beta virt. eigenvalues --    3.56758   3.57783   3.64399   3.70723   3.71405
  Beta virt. eigenvalues --    4.53763   4.56792   4.61622   4.69657   4.90653
  Beta virt. eigenvalues --    4.99328   5.04173   5.04888   5.05124   5.08030
  Beta virt. eigenvalues --    5.11640   5.12622   5.12925   5.16660   5.24158
  Beta virt. eigenvalues --    5.25197   5.41518   5.45121   5.52064   5.57024
  Beta virt. eigenvalues --    5.66200   5.71444   5.85125   5.98835   6.55097
  Beta virt. eigenvalues --    8.73450  14.33607  14.37679  14.40241  14.41015
  Beta virt. eigenvalues --   14.43417  14.46963  14.48706  14.50254  14.61634
  Beta virt. eigenvalues --   14.72265  17.37135  17.60557  17.87285  50.02493
  Beta virt. eigenvalues --   50.11153 189.77585
          Condensed to atoms (all electrons):
              1          2          3          4
     1  S   15.338428  -0.009620   0.144982   0.011366
     2  O   -0.009620   8.422116   0.006651   0.208214
     3  O    0.144982   0.006651   8.229577  -0.000621
     4  H    0.011366   0.208214  -0.000621   0.287934
 Mulliken atomic charges:
              1
     1  S    0.514844
     2  O   -0.627362
     3  O   -0.380589
     4  H    0.493107
 Sum of Mulliken atomic charges =   0.00000
 Mulliken charges with hydrogens summed into heavy atoms:
              1
     1  S    0.514844
     2  O   -0.134255
     3  O   -0.380589
 Sum of Mulliken charges with hydrogens summed into heavy atoms =   0.00000
          Atomic-Atomic Spin Densities.
              1          2          3          4
     1  S    0.928367  -0.100245  -0.193498   0.000453
     2  O   -0.100245   0.145647   0.018220  -0.003611
     3  O   -0.193498   0.018220   0.480917  -0.000769
     4  H    0.000453  -0.003611  -0.000769   0.003970
 Mulliken atomic spin densities:
              1
     1  S    0.635077
     2  O    0.060011
     3  O    0.304870
     4  H    0.000042
 Sum of Mulliken atomic spin densities =   1.00000
 Electronic spatial extent (au):  <R**2>=            179.8382
 Charge=              0.0000 electrons
 Dipole moment (field-independent basis, Debye):
    X=              1.2164    Y=              0.0495    Z=              0.4744  Tot=              1.3065
 Quadrupole moment (field-independent basis, Debye-Ang):
   XX=            -26.7495   YY=            -20.9799   ZZ=            -23.6743
   XY=              3.4152   XZ=              0.6097   YZ=              0.7513
 Traceless Quadrupole moment (field-independent basis, Debye-Ang):
   XX=             -2.9483   YY=              2.8213   ZZ=              0.1270
   XY=              3.4152   XZ=              0.6097   YZ=              0.7513
 Octapole moment (field-independent basis, Debye-Ang**2):
  XXX=              1.3222  YYY=              5.2071  ZZZ=             -0.0147  XYY=              4.6412
  XXY=              1.1220  XXZ=              0.7520  XZZ=              0.0477  YZZ=              1.1276
  YYZ=              0.8881  XYZ=              0.9166
 Hexadecapole moment (field-independent basis, Debye-Ang**3):
 XXXX=           -143.9614 YYYY=            -51.7691 ZZZZ=            -24.9262 XXXY=              6.1222
 XXXZ=              1.0529 YYYX=              6.3902 YYYZ=              1.2710 ZZZX=              0.3220
 ZZZY=              0.5100 XXYY=            -26.9484 XXZZ=            -27.4106 YYZZ=            -13.9237
 XXYZ=              1.2713 YYXZ=              1.0985 ZZXY=              0.3963
 N-N= 1.104320050415D+02 E-N=-2.278833963025D+03  KE= 8.209243223152D+02
                          Isotropic Fermi Contact Couplings
        Atom                 a.u.       MegaHertz       Gauss      10(-4) cm-1
     1  S(33)              0.10188      34.99182      12.48595      11.67202
     2  O(17)              0.01961     -11.88846      -4.24210      -3.96556
     3  O(17)              0.05245     -31.79787     -11.34627     -10.60663
     4  H(1)              -0.00006      -0.25023      -0.08929      -0.08347
 --------------------------------------------------------
       Center         ----  Spin Dipole Couplings  ----
                      3XX-RR        3YY-RR        3ZZ-RR
 --------------------------------------------------------
     1   Atom       -1.507109     -1.617872      3.124981
     2   Atom       -0.243011     -0.207463      0.450473
     3   Atom       -0.783130     -0.785702      1.568832
     4   Atom       -0.009028      0.020107     -0.011080
 --------------------------------------------------------
                        XY            XZ            YZ
 --------------------------------------------------------
     1   Atom        0.000251     -0.047696      0.157449
     2   Atom        0.006965      0.012826     -0.099353
     3   Atom        0.006563      0.071661      0.036911
     4   Atom        0.004778      0.001105      0.004168
 --------------------------------------------------------


 ---------------------------------------------------------------------------------
              Anisotropic Spin Dipole Couplings in Principal Axis System
 ---------------------------------------------------------------------------------

       Atom             a.u.   MegaHertz   Gauss  10(-4) cm-1        Axes

              Baa    -1.6231   -66.547   -23.745   -22.198 -0.0158  0.9993 -0.0333
     1 S(33)  Bbb    -1.5076   -61.809   -22.055   -20.617  0.9998  0.0162  0.0097
              Bcc     3.1307   128.355    45.800    42.815 -0.0103  0.0331  0.9994
 
              Baa    -0.2464    17.827     6.361     5.947  0.9403 -0.3342 -0.0650
     2 O(17)  Bbb    -0.2190    15.844     5.654     5.285  0.3400  0.9312  0.1317
              Bcc     0.4653   -33.672   -12.015   -11.232  0.0165 -0.1459  0.9892
 
              Baa    -0.7913    57.255    20.430    19.098 -0.6748  0.7379  0.0090
     3 O(17)  Bbb    -0.7803    56.465    20.148    18.835  0.7373  0.6747 -0.0331
              Bcc     1.5716  -113.720   -40.578   -37.933  0.0305  0.0157  0.9994
 
              Baa    -0.0117    -6.264    -2.235    -2.089 -0.2325 -0.0918  0.9682
     4 H(1)   Bbb    -0.0097    -5.174    -1.846    -1.726  0.9596 -0.1836  0.2131
              Bcc     0.0214    11.438     4.081     3.815  0.1582  0.9787  0.1308
 

 ---------------------------------------------------------------------------------

 Calling FoFJK, ICntrl=      2127 FMM=F ISym2X=0 I1Cent= 0 IOpClX= 1 NMat=1 NMatS=1 NMatT=0.
 FoFJK:  IHMeth= 1 ICntrl=  2127 DoSepK=T KAlg= 1 I1Cent= 0 FoldK=F
 ***** Axes restored to original set *****
 -------------------------------------------------------------------
 Center     Atomic                   Forces (Hartrees/Bohr)
 Number     Number              X              Y              Z
 -------------------------------------------------------------------
      1       16          -0.000243934    0.013479737   -0.000468835
      2        8          -0.009464516   -0.000134801    0.001407926
      3        8           0.009928137   -0.008839228    0.000257519
      4        1          -0.000219688   -0.004505708   -0.001196609
 -------------------------------------------------------------------
 Cartesian Forces:  Max     0.013479737 RMS     0.006272345

 GradGradGradGradGradGradGradGradGradGradGradGradGradGradGradGradGradGrad
 Berny optimization.
 Internal  Forces:  Max     0.013280306 RMS     0.007274727
 Search for a local minimum.
 Step number   1 out of a maximum of   20
 All quantities printed in internal units (Hartrees-Bohrs-Radians)
 Mixed Optimization -- RFO/linear search
 Second derivative matrix not updated -- first step.
 The second derivative matrix:
                          R1        R2        R3        A1        A2
           R1           0.43366
           R2           0.00000   0.86487
           R3           0.00000   0.00000   0.53321
           A1           0.00000   0.00000   0.00000   0.25000
           A2           0.00000   0.00000   0.00000   0.00000   0.16000
           D1           0.00000   0.00000   0.00000   0.00000   0.00000
                          D1
           D1           0.02019
 ITU=  0
     Eigenvalues ---    0.02019   0.16000   0.25000   0.43366   0.53321
     Eigenvalues ---    0.86487
 RFO step:  Lambda=-5.30925884D-04 EMin= 2.01944830D-02
 Linear search not attempted -- first point.
 Iteration  1 RMS(Cart)=  0.01990845 RMS(Int)=  0.00004068
 Iteration  2 RMS(Cart)=  0.00004981 RMS(Int)=  0.00000000
 Iteration  3 RMS(Cart)=  0.00000000 RMS(Int)=  0.00000000
 Variable       Old X    -DE/DX   Delta X   Delta X   Delta X     New X
                                 (Linear)    (Quad)   (Total)
    R1        3.10920  -0.01074   0.00000  -0.02473  -0.02473   3.08447
    R2        2.78295  -0.01328   0.00000  -0.01535  -0.01535   2.76761
    R3        1.83355  -0.00462   0.00000  -0.00865  -0.00865   1.82490
    A1        1.90423  -0.00172   0.00000  -0.00685  -0.00685   1.89738
    A2        1.90645  -0.00126   0.00000  -0.00782  -0.00782   1.89863
    D1        0.34307  -0.00001   0.00000  -0.00042  -0.00042   0.34265
         Item               Value     Threshold  Converged?
 Maximum Force            0.013280     0.000002     NO 
 RMS     Force            0.007275     0.000001     NO 
 Maximum Displacement     0.032059     0.000006     NO 
 RMS     Displacement     0.019880     0.000004     NO 
 Predicted change in Energy=-2.657367D-04
 GradGradGradGradGradGradGradGradGradGradGradGradGradGradGradGradGradGrad

                          Input orientation:                          
 ---------------------------------------------------------------------
 Center     Atomic      Atomic             Coordinates (Angstroms)
 Number     Number       Type             X           Y           Z
 ---------------------------------------------------------------------
      1         16           0       -0.137728   -0.474353    0.015099
      2          8           0        1.321250    0.255402   -0.039870
      3          8           0       -1.179298    0.554738   -0.016891
      4          1           0        1.217817    1.177768    0.226796
 ---------------------------------------------------------------------
                    Distance matrix (angstroms):
                    1          2          3          4
     1  S    0.000000
     2  O    1.632232   0.000000
     3  O    1.464555   2.518506   0.000000
     4  H    2.147515   0.965695   2.488716   0.000000
 Stoichiometry    HO2S(2)
 Framework group  C1[X(HO2S)]
 Deg. of freedom     6
 Full point group                 C1      NOp   1
 Largest Abelian subgroup         C1      NOp   1
 Largest concise Abelian subgroup C1      NOp   1
                         Standard orientation:                         
 ---------------------------------------------------------------------
 Center     Atomic      Atomic             Coordinates (Angstroms)
 Number     Number       Type             X           Y           Z
 ---------------------------------------------------------------------
      1         16           0       -0.140898   -0.476868    0.014324
      2          8           0        1.316001    0.257133   -0.039231
      3          8           0       -1.185419    0.549221   -0.017896
      4          1           0        1.209708    1.179060    0.227826
 ---------------------------------------------------------------------
 Rotational constants (GHZ):     34.6981451      9.6443126      7.5650103
 Standard basis: 6-311+G(3df) (5D, 7F)
 There are   128 symmetry adapted basis functions of A   symmetry.
 Integral buffers will be    131072 words long.
 Raffenetti 2 integral format.
 Two-electron integral symmetry is turned on.
   128 basis functions,   193 primitive gaussians,   146 cartesian basis functions
    17 alpha electrons       16 beta electrons
       nuclear repulsion energy       111.2223948932 Hartrees.
 NAtoms=    4 NActive=    4 NUniq=    4 SFac= 1.00D+00 NAtFMM=   60 NAOKFM=F Big=F
 Nuclear repulsion after empirical dispersion term =      111.2221455952 Hartrees.
 One-electron integrals computed using PRISM.
 NBasis=   128 RedAO= T  NBF=   128
 NBsUse=   128 1.00D-06 NBFU=   128
 Initial guess read from the read-write file.
 B after Tr=     0.000000    0.000000    0.000000
         Rot=    1.000000    0.000000    0.000000    0.000000 Ang=   0.00 deg.
 Initial guess orbital symmetries:
 Alpha Orbitals:
       Occupied  (A) (A) (A) (A) (A) (A) (A) (A) (A) (A) (A) (A)
                 (A) (A) (A) (A) (A)
       Virtual   (A) (A) (A) (A) (A) (A) (A) (A) (A) (A) (A) (A)
                 (A) (A) (A) (A) (A) (A) (A) (A) (A) (A) (A) (A)
                 (A) (A) (A) (A) (A) (A) (A) (A) (A) (A) (A) (A)
                 (A) (A) (A) (A) (A) (A) (A) (A) (A) (A) (A) (A)
                 (A) (A) (A) (A) (A) (A) (A) (A) (A) (A) (A) (A)
                 (A) (A) (A) (A) (A) (A) (A) (A) (A) (A) (A) (A)
                 (A) (A) (A) (A) (A) (A) (A) (A) (A) (A) (A) (A)
                 (A) (A) (A) (A) (A) (A) (A) (A) (A) (A) (A) (A)
                 (A) (A) (A) (A) (A) (A) (A) (A) (A) (A) (A) (A)
                 (A) (A) (A)
 Beta  Orbitals:
       Occupied  (A) (A) (A) (A) (A) (A) (A) (A) (A) (A) (A) (A)
                 (A) (A) (A) (A)
       Virtual   (A) (A) (A) (A) (A) (A) (A) (A) (A) (A) (A) (A)
                 (A) (A) (A) (A) (A) (A) (A) (A) (A) (A) (A) (A)
                 (A) (A) (A) (A) (A) (A) (A) (A) (A) (A) (A) (A)
                 (A) (A) (A) (A) (A) (A) (A) (A) (A) (A) (A) (A)
                 (A) (A) (A) (A) (A) (A) (A) (A) (A) (A) (A) (A)
                 (A) (A) (A) (A) (A) (A) (A) (A) (A) (A) (A) (A)
                 (A) (A) (A) (A) (A) (A) (A) (A) (A) (A) (A) (A)
                 (A) (A) (A) (A) (A) (A) (A) (A) (A) (A) (A) (A)
                 (A) (A) (A) (A) (A) (A) (A) (A) (A) (A) (A) (A)
                 (A) (A) (A) (A)
 Initial guess <Sx>= 0.0000 <Sy>= 0.0000 <Sz>= 0.5000 <S**2>= 0.7555 S= 0.5028
 Harris functional with IExCor= 4639 diagonalized for initial guess.
 ExpMin= 4.05D-02 ExpMax= 9.34D+04 ExpMxC= 3.17D+03 IAcc=3 IRadAn=         5 AccDes= 0.00D+00
 HarFok:  IExCor= 4639 AccDes= 0.00D+00 IRadAn=         5 IDoV= 1
 ScaDFX=  1.000000  1.000000  1.000000  1.000000
 FoFCou: FMM=F IPFlag=           0 FMFlag=      100000 FMFlg1=           0
         NFxFlg=           0 DoJE=T BraDBF=F KetDBF=T FulRan=T
         Omega=  0.000000  0.000000  1.000000  0.000000  0.000000 ICntrl=     500 IOpCl=  0
         NMat0=    1 NMatS0=    1 NMatT0=    0 NMatD0=    1 NMtDS0=    0 NMtDT0=    0
         I1Cent=           4 NGrid=           0.
 Petite list used in FoFCou.
 Requested convergence on RMS density matrix=1.00D-08 within 128 cycles.
 Requested convergence on MAX density matrix=1.00D-06.
 Requested convergence on             energy=1.00D-06.
 No special actions if energy rises.
 FoFJK:  IHMeth= 1 ICntrl=     0 DoSepK=T KAlg= 1 I1Cent= 0 FoldK=F
 FoFJK:  IHMeth= 1 ICntrl=     0 DoSepK=T KAlg= 1 I1Cent= 0 FoldK=F
 FoFJK:  IHMeth= 1 ICntrl=     0 DoSepK=T KAlg= 1 I1Cent= 0 FoldK=F
 FoFJK:  IHMeth= 1 ICntrl=     0 DoSepK=T KAlg= 1 I1Cent= 0 FoldK=F
 FoFJK:  IHMeth= 1 ICntrl=     0 DoSepK=T KAlg= 1 I1Cent= 0 FoldK=F
 FoFJK:  IHMeth= 1 ICntrl=     0 DoSepK=T KAlg= 1 I1Cent= 0 FoldK=F
 FoFJK:  IHMeth= 1 ICntrl=     0 DoSepK=T KAlg= 1 I1Cent= 0 FoldK=F
 FoFJK:  IHMeth= 1 ICntrl=     0 DoSepK=T KAlg= 1 I1Cent= 0 FoldK=F
 FoFJK:  IHMeth= 1 ICntrl=     0 DoSepK=T KAlg= 1 I1Cent= 0 FoldK=F
 FoFJK:  IHMeth= 1 ICntrl=     0 DoSepK=T KAlg= 1 I1Cent= 0 FoldK=F
 FoFJK:  IHMeth= 1 ICntrl=     0 DoSepK=T KAlg= 1 I1Cent= 0 FoldK=F
 FoFJK:  IHMeth= 1 ICntrl=     0 DoSepK=T KAlg= 1 I1Cent= 0 FoldK=F
 SCF Done:  E(UwB97XD) =  -549.221208863     A.U. after   12 cycles
             Convg  =    0.4220D-08             -V/T =  2.0017
 <Sx>= 0.0000 <Sy>= 0.0000 <Sz>= 0.5000 <S**2>= 0.7555 S= 0.5027
 <L.S>= 0.000000000000E+00
 Annihilation of the first spin contaminant:
 S**2 before annihilation     0.7555,   after     0.7500
 Calling FoFJK, ICntrl=      2127 FMM=F ISym2X=0 I1Cent= 0 IOpClX= 1 NMat=1 NMatS=1 NMatT=0.
 FoFJK:  IHMeth= 1 ICntrl=  2127 DoSepK=T KAlg= 1 I1Cent= 0 FoldK=F
 ***** Axes restored to original set *****
 -------------------------------------------------------------------
 Center     Atomic                   Forces (Hartrees/Bohr)
 Number     Number              X              Y              Z
 -------------------------------------------------------------------
      1       16           0.001074146    0.004059173   -0.000298596
      2        8          -0.003886094   -0.001736519    0.000268445
      3        8           0.002418334   -0.002498945    0.000084610
      4        1           0.000393614    0.000176291   -0.000054459
 -------------------------------------------------------------------
 Cartesian Forces:  Max     0.004059173 RMS     0.002004127

 GradGradGradGradGradGradGradGradGradGradGradGradGradGradGradGradGradGrad
 Berny optimization.
 Using GEDIIS/GDIIS optimizer.
 Internal  Forces:  Max     0.003826891 RMS     0.002136058
 Search for a local minimum.
 Step number   2 out of a maximum of   20
 All quantities printed in internal units (Hartrees-Bohrs-Radians)
 Mixed Optimization -- RFO/linear search
 Update second derivatives using D2CorX and points    1    2
 DE= -3.37D-04 DEPred=-2.66D-04 R= 1.27D+00
 SS=  1.41D+00  RLast= 3.21D-02 DXNew= 5.0454D-01 9.6297D-02
 Trust test= 1.27D+00 RLast= 3.21D-02 DXMaxT set to 3.00D-01
 The second derivative matrix:
                          R1        R2        R3        A1        A2
           R1           0.33885
           R2          -0.09523   0.77836
           R3          -0.00977   0.00301   0.55021
           A1          -0.00051   0.00554   0.00845   0.25401
           A2           0.01036   0.01928   0.01351   0.00593   0.16747
           D1          -0.00074  -0.00102  -0.00046  -0.00019  -0.00019
                          D1
           D1           0.02020
 ITU=  1  0
 Use linear search instead of GDIIS.
     Eigenvalues ---    0.02019   0.16489   0.25400   0.32017   0.55112
     Eigenvalues ---    0.79873
 RFO step:  Lambda=-2.74619536D-05 EMin= 2.01925143D-02
 Quartic linear search produced a step of  0.34201.
 Iteration  1 RMS(Cart)=  0.00489264 RMS(Int)=  0.00001463
 Iteration  2 RMS(Cart)=  0.00001142 RMS(Int)=  0.00000000
 Iteration  3 RMS(Cart)=  0.00000000 RMS(Int)=  0.00000000
 Variable       Old X    -DE/DX   Delta X   Delta X   Delta X     New X
                                 (Linear)    (Quad)   (Total)
    R1        3.08447  -0.00383  -0.00846  -0.00433  -0.01279   3.07168
    R2        2.76761  -0.00348  -0.00525  -0.00084  -0.00609   2.76152
    R3        1.82490   0.00011  -0.00296   0.00288  -0.00008   1.82482
    A1        1.89738   0.00022  -0.00234   0.00330   0.00096   1.89834
    A2        1.89863   0.00076  -0.00268   0.00896   0.00628   1.90491
    D1        0.34265  -0.00004  -0.00014  -0.00247  -0.00261   0.34003
         Item               Value     Threshold  Converged?
 Maximum Force            0.003827     0.000002     NO 
 RMS     Force            0.002136     0.000001     NO 
 Maximum Displacement     0.008876     0.000006     NO 
 RMS     Displacement     0.004893     0.000004     NO 
 Predicted change in Energy=-3.861305D-05
 GradGradGradGradGradGradGradGradGradGradGradGradGradGradGradGradGradGrad

                          Input orientation:                          
 ---------------------------------------------------------------------
 Center     Atomic      Atomic             Coordinates (Angstroms)
 Number     Number       Type             X           Y           Z
 ---------------------------------------------------------------------
      1         16           0       -0.136337   -0.472375    0.014264
      2          8           0        1.316553    0.254551   -0.038777
      3          8           0       -1.176673    0.553417   -0.016505
      4          1           0        1.218498    1.177962    0.226152
 ---------------------------------------------------------------------
                    Distance matrix (angstroms):
                    1          2          3          4
     1  S    0.000000
     2  O    1.625462   0.000000
     3  O    1.461334   2.511174   0.000000
     4  H    2.145714   0.965655   2.487123   0.000000
 Stoichiometry    HO2S(2)
 Framework group  C1[X(HO2S)]
 Deg. of freedom     6
 Full point group                 C1      NOp   1
 Largest Abelian subgroup         C1      NOp   1
 Largest concise Abelian subgroup C1      NOp   1
                         Standard orientation:                         
 ---------------------------------------------------------------------
 Center     Atomic      Atomic             Coordinates (Angstroms)
 Number     Number       Type             X           Y           Z
 ---------------------------------------------------------------------
      1         16           0       -0.139478   -0.475371    0.014244
      2          8           0        1.310981    0.256385   -0.038929
      3          8           0       -1.183242    0.546897   -0.017709
      4          1           0        1.209740    1.179680    0.225204
 ---------------------------------------------------------------------
 Rotational constants (GHZ):     34.9213519      9.7012127      7.6102574
 Standard basis: 6-311+G(3df) (5D, 7F)
 There are   128 symmetry adapted basis functions of A   symmetry.
 Integral buffers will be    131072 words long.
 Raffenetti 2 integral format.
 Two-electron integral symmetry is turned on.
   128 basis functions,   193 primitive gaussians,   146 cartesian basis functions
    17 alpha electrons       16 beta electrons
       nuclear repulsion energy       111.5410253287 Hartrees.
 NAtoms=    4 NActive=    4 NUniq=    4 SFac= 1.00D+00 NAtFMM=   60 NAOKFM=F Big=F
 Nuclear repulsion after empirical dispersion term =      111.5407777120 Hartrees.
 One-electron integrals computed using PRISM.
 NBasis=   128 RedAO= T  NBF=   128
 NBsUse=   128 1.00D-06 NBFU=   128
 Initial guess read from the read-write file.
 B after Tr=     0.000000    0.000000    0.000000
         Rot=    1.000000    0.000000    0.000000    0.000000 Ang=   0.00 deg.
 Initial guess orbital symmetries:
 Alpha Orbitals:
       Occupied  (A) (A) (A) (A) (A) (A) (A) (A) (A) (A) (A) (A)
                 (A) (A) (A) (A) (A)
       Virtual   (A) (A) (A) (A) (A) (A) (A) (A) (A) (A) (A) (A)
                 (A) (A) (A) (A) (A) (A) (A) (A) (A) (A) (A) (A)
                 (A) (A) (A) (A) (A) (A) (A) (A) (A) (A) (A) (A)
                 (A) (A) (A) (A) (A) (A) (A) (A) (A) (A) (A) (A)
                 (A) (A) (A) (A) (A) (A) (A) (A) (A) (A) (A) (A)
                 (A) (A) (A) (A) (A) (A) (A) (A) (A) (A) (A) (A)
                 (A) (A) (A) (A) (A) (A) (A) (A) (A) (A) (A) (A)
                 (A) (A) (A) (A) (A) (A) (A) (A) (A) (A) (A) (A)
                 (A) (A) (A) (A) (A) (A) (A) (A) (A) (A) (A) (A)
                 (A) (A) (A)
 Beta  Orbitals:
       Occupied  (A) (A) (A) (A) (A) (A) (A) (A) (A) (A) (A) (A)
                 (A) (A) (A) (A)
       Virtual   (A) (A) (A) (A) (A) (A) (A) (A) (A) (A) (A) (A)
                 (A) (A) (A) (A) (A) (A) (A) (A) (A) (A) (A) (A)
                 (A) (A) (A) (A) (A) (A) (A) (A) (A) (A) (A) (A)
                 (A) (A) (A) (A) (A) (A) (A) (A) (A) (A) (A) (A)
                 (A) (A) (A) (A) (A) (A) (A) (A) (A) (A) (A) (A)
                 (A) (A) (A) (A) (A) (A) (A) (A) (A) (A) (A) (A)
                 (A) (A) (A) (A) (A) (A) (A) (A) (A) (A) (A) (A)
                 (A) (A) (A) (A) (A) (A) (A) (A) (A) (A) (A) (A)
                 (A) (A) (A) (A) (A) (A) (A) (A) (A) (A) (A) (A)
                 (A) (A) (A) (A)
 Initial guess <Sx>= 0.0000 <Sy>= 0.0000 <Sz>= 0.5000 <S**2>= 0.7555 S= 0.5027
 Requested convergence on RMS density matrix=1.00D-08 within 128 cycles.
 Requested convergence on MAX density matrix=1.00D-06.
 Requested convergence on             energy=1.00D-06.
 No special actions if energy rises.
 FoFJK:  IHMeth= 1 ICntrl=     0 DoSepK=T KAlg= 1 I1Cent= 0 FoldK=F
 FoFJK:  IHMeth= 1 ICntrl=     0 DoSepK=T KAlg= 1 I1Cent= 0 FoldK=F
 FoFJK:  IHMeth= 1 ICntrl=     0 DoSepK=T KAlg= 1 I1Cent= 0 FoldK=F
 FoFJK:  IHMeth= 1 ICntrl=     0 DoSepK=T KAlg= 1 I1Cent= 0 FoldK=F
 FoFJK:  IHMeth= 1 ICntrl=     0 DoSepK=T KAlg= 1 I1Cent= 0 FoldK=F
 FoFJK:  IHMeth= 1 ICntrl=     0 DoSepK=T KAlg= 1 I1Cent= 0 FoldK=F
 FoFJK:  IHMeth= 1 ICntrl=     0 DoSepK=T KAlg= 1 I1Cent= 0 FoldK=F
 FoFJK:  IHMeth= 1 ICntrl=     0 DoSepK=T KAlg= 1 I1Cent= 0 FoldK=F
 FoFJK:  IHMeth= 1 ICntrl=     0 DoSepK=T KAlg= 1 I1Cent= 0 FoldK=F
 FoFJK:  IHMeth= 1 ICntrl=     0 DoSepK=T KAlg= 1 I1Cent= 0 FoldK=F
 FoFJK:  IHMeth= 1 ICntrl=     0 DoSepK=T KAlg= 1 I1Cent= 0 FoldK=F
 SCF Done:  E(UwB97XD) =  -549.221250134     A.U. after   11 cycles
             Convg  =    0.4376D-08             -V/T =  2.0016
 <Sx>= 0.0000 <Sy>= 0.0000 <Sz>= 0.5000 <S**2>= 0.7555 S= 0.5027
 <L.S>= 0.000000000000E+00
 Annihilation of the first spin contaminant:
 S**2 before annihilation     0.7555,   after     0.7500
 Calling FoFJK, ICntrl=      2127 FMM=F ISym2X=0 I1Cent= 0 IOpClX= 1 NMat=1 NMatS=1 NMatT=0.
 FoFJK:  IHMeth= 1 ICntrl=  2127 DoSepK=T KAlg= 1 I1Cent= 0 FoldK=F
 ***** Axes restored to original set *****
 -------------------------------------------------------------------
 Center     Atomic                   Forces (Hartrees/Bohr)
 Number     Number              X              Y              Z
 -------------------------------------------------------------------
      1       16           0.000867492   -0.000110909   -0.000046044
      2        8          -0.000733342   -0.000295755    0.000070920
      3        8          -0.000394947    0.000259422   -0.000019332
      4        1           0.000260797    0.000147242   -0.000005544
 -------------------------------------------------------------------
 Cartesian Forces:  Max     0.000867492 RMS     0.000377562

 GradGradGradGradGradGradGradGradGradGradGradGradGradGradGradGradGradGrad
 Berny optimization.
 Using GEDIIS/GDIIS optimizer.
 Internal  Forces:  Max     0.000506549 RMS     0.000362888
 Search for a local minimum.
 Step number   3 out of a maximum of   20
 All quantities printed in internal units (Hartrees-Bohrs-Radians)
 Mixed Optimization -- En-DIIS/RFO-DIIS
 Update second derivatives using D2CorX and points    1    2    3
 DE= -4.13D-05 DEPred=-3.86D-05 R= 1.07D+00
 SS=  1.41D+00  RLast= 1.57D-02 DXNew= 5.0454D-01 4.7241D-02
 Trust test= 1.07D+00 RLast= 1.57D-02 DXMaxT set to 3.00D-01
 The second derivative matrix:
                          R1        R2        R3        A1        A2
           R1           0.31574
           R2          -0.07413   0.85644
           R3          -0.00245   0.01652   0.55182
           A1           0.01373   0.02334   0.01025   0.25496
           A2           0.03805   0.04813   0.01587   0.00597   0.16436
           D1          -0.00009   0.00022  -0.00028  -0.00001   0.00005
                          D1
           D1           0.02021
 ITU=  1  1  0
 Use linear search instead of GDIIS.
     Eigenvalues ---    0.02021   0.14886   0.24960   0.32236   0.55170
     Eigenvalues ---    0.87079
 RFO step:  Lambda=-2.34698824D-06 EMin= 2.02124036D-02
 Quartic linear search produced a step of  0.09779.
 Iteration  1 RMS(Cart)=  0.00220263 RMS(Int)=  0.00000409
 Iteration  2 RMS(Cart)=  0.00000306 RMS(Int)=  0.00000000
 Iteration  3 RMS(Cart)=  0.00000000 RMS(Int)=  0.00000000
 Variable       Old X    -DE/DX   Delta X   Delta X   Delta X     New X
                                 (Linear)    (Quad)   (Total)
    R1        3.07168  -0.00049  -0.00125  -0.00070  -0.00195   3.06973
    R2        2.76152   0.00047  -0.00060   0.00075   0.00016   2.76168
    R3        1.82482   0.00011  -0.00001   0.00008   0.00007   1.82490
    A1        1.89834   0.00025   0.00009   0.00090   0.00099   1.89933
    A2        1.90491   0.00051   0.00061   0.00281   0.00342   1.90833
    D1        0.34003   0.00001  -0.00026   0.00090   0.00065   0.34068
         Item               Value     Threshold  Converged?
 Maximum Force            0.000507     0.000002     NO 
 RMS     Force            0.000363     0.000001     NO 
 Maximum Displacement     0.004070     0.000006     NO 
 RMS     Displacement     0.002202     0.000004     NO 
 Predicted change in Energy=-1.528075D-06
 GradGradGradGradGradGradGradGradGradGradGradGradGradGradGradGradGradGrad

                          Input orientation:                          
 ---------------------------------------------------------------------
 Center     Atomic      Atomic             Coordinates (Angstroms)
 Number     Number       Type             X           Y           Z
 ---------------------------------------------------------------------
      1         16           0       -0.136294   -0.472065    0.014216
      2          8           0        1.315559    0.254639   -0.038682
      3          8           0       -1.177875    0.552578   -0.016701
      4          1           0        1.220651    1.178403    0.226301
 ---------------------------------------------------------------------
                    Distance matrix (angstroms):
                    1          2          3          4
     1  S    0.000000
     2  O    1.624431   0.000000
     3  O    1.461417   2.511267   0.000000
     4  H    2.147167   0.965693   2.490710   0.000000
 Stoichiometry    HO2S(2)
 Framework group  C1[X(HO2S)]
 Deg. of freedom     6
 Full point group                 C1      NOp   1
 Largest Abelian subgroup         C1      NOp   1
 Largest concise Abelian subgroup C1      NOp   1
                         Standard orientation:                         
 ---------------------------------------------------------------------
 Center     Atomic      Atomic             Coordinates (Angstroms)
 Number     Number       Type             X           Y           Z
 ---------------------------------------------------------------------
      1         16           0       -0.139080   -0.475014    0.014270
      2          8           0        1.310476    0.256234   -0.038998
      3          8           0       -1.183891    0.546304   -0.017689
      4          1           0        1.212603    1.179916    0.225188
 ---------------------------------------------------------------------
 Rotational constants (GHZ):     34.9747207      9.6998915      7.6119920
 Standard basis: 6-311+G(3df) (5D, 7F)
 There are   128 symmetry adapted basis functions of A   symmetry.
 Integral buffers will be    131072 words long.
 Raffenetti 2 integral format.
 Two-electron integral symmetry is turned on.
   128 basis functions,   193 primitive gaussians,   146 cartesian basis functions
    17 alpha electrons       16 beta electrons
       nuclear repulsion energy       111.5590280045 Hartrees.
 NAtoms=    4 NActive=    4 NUniq=    4 SFac= 1.00D+00 NAtFMM=   60 NAOKFM=F Big=F
 Nuclear repulsion after empirical dispersion term =      111.5587796917 Hartrees.
 One-electron integrals computed using PRISM.
 NBasis=   128 RedAO= T  NBF=   128
 NBsUse=   128 1.00D-06 NBFU=   128
 Initial guess read from the read-write file.
 B after Tr=     0.000000    0.000000    0.000000
         Rot=    1.000000    0.000000    0.000000    0.000000 Ang=   0.00 deg.
 Initial guess orbital symmetries:
 Alpha Orbitals:
       Occupied  (A) (A) (A) (A) (A) (A) (A) (A) (A) (A) (A) (A)
                 (A) (A) (A) (A) (A)
       Virtual   (A) (A) (A) (A) (A) (A) (A) (A) (A) (A) (A) (A)
                 (A) (A) (A) (A) (A) (A) (A) (A) (A) (A) (A) (A)
                 (A) (A) (A) (A) (A) (A) (A) (A) (A) (A) (A) (A)
                 (A) (A) (A) (A) (A) (A) (A) (A) (A) (A) (A) (A)
                 (A) (A) (A) (A) (A) (A) (A) (A) (A) (A) (A) (A)
                 (A) (A) (A) (A) (A) (A) (A) (A) (A) (A) (A) (A)
                 (A) (A) (A) (A) (A) (A) (A) (A) (A) (A) (A) (A)
                 (A) (A) (A) (A) (A) (A) (A) (A) (A) (A) (A) (A)
                 (A) (A) (A) (A) (A) (A) (A) (A) (A) (A) (A) (A)
                 (A) (A) (A)
 Beta  Orbitals:
       Occupied  (A) (A) (A) (A) (A) (A) (A) (A) (A) (A) (A) (A)
                 (A) (A) (A) (A)
       Virtual   (A) (A) (A) (A) (A) (A) (A) (A) (A) (A) (A) (A)
                 (A) (A) (A) (A) (A) (A) (A) (A) (A) (A) (A) (A)
                 (A) (A) (A) (A) (A) (A) (A) (A) (A) (A) (A) (A)
                 (A) (A) (A) (A) (A) (A) (A) (A) (A) (A) (A) (A)
                 (A) (A) (A) (A) (A) (A) (A) (A) (A) (A) (A) (A)
                 (A) (A) (A) (A) (A) (A) (A) (A) (A) (A) (A) (A)
                 (A) (A) (A) (A) (A) (A) (A) (A) (A) (A) (A) (A)
                 (A) (A) (A) (A) (A) (A) (A) (A) (A) (A) (A) (A)
                 (A) (A) (A) (A) (A) (A) (A) (A) (A) (A) (A) (A)
                 (A) (A) (A) (A)
 Initial guess <Sx>= 0.0000 <Sy>= 0.0000 <Sz>= 0.5000 <S**2>= 0.7555 S= 0.5027
 Requested convergence on RMS density matrix=1.00D-08 within 128 cycles.
 Requested convergence on MAX density matrix=1.00D-06.
 Requested convergence on             energy=1.00D-06.
 No special actions if energy rises.
 FoFJK:  IHMeth= 1 ICntrl=     0 DoSepK=T KAlg= 1 I1Cent= 0 FoldK=F
 FoFJK:  IHMeth= 1 ICntrl=     0 DoSepK=T KAlg= 1 I1Cent= 0 FoldK=F
 FoFJK:  IHMeth= 1 ICntrl=     0 DoSepK=T KAlg= 1 I1Cent= 0 FoldK=F
 FoFJK:  IHMeth= 1 ICntrl=     0 DoSepK=T KAlg= 1 I1Cent= 0 FoldK=F
 FoFJK:  IHMeth= 1 ICntrl=     0 DoSepK=T KAlg= 1 I1Cent= 0 FoldK=F
 FoFJK:  IHMeth= 1 ICntrl=     0 DoSepK=T KAlg= 1 I1Cent= 0 FoldK=F
 FoFJK:  IHMeth= 1 ICntrl=     0 DoSepK=T KAlg= 1 I1Cent= 0 FoldK=F
 FoFJK:  IHMeth= 1 ICntrl=     0 DoSepK=T KAlg= 1 I1Cent= 0 FoldK=F
 FoFJK:  IHMeth= 1 ICntrl=     0 DoSepK=T KAlg= 1 I1Cent= 0 FoldK=F
 FoFJK:  IHMeth= 1 ICntrl=     0 DoSepK=T KAlg= 1 I1Cent= 0 FoldK=F
 SCF Done:  E(UwB97XD) =  -549.221252099     A.U. after   10 cycles
             Convg  =    0.4999D-08             -V/T =  2.0016
 <Sx>= 0.0000 <Sy>= 0.0000 <Sz>= 0.5000 <S**2>= 0.7555 S= 0.5027
 <L.S>= 0.000000000000E+00
 Annihilation of the first spin contaminant:
 S**2 before annihilation     0.7555,   after     0.7500
 Calling FoFJK, ICntrl=      2127 FMM=F ISym2X=0 I1Cent= 0 IOpClX= 1 NMat=1 NMatS=1 NMatT=0.
 FoFJK:  IHMeth= 1 ICntrl=  2127 DoSepK=T KAlg= 1 I1Cent= 0 FoldK=F
 ***** Axes restored to original set *****
 -------------------------------------------------------------------
 Center     Atomic                   Forces (Hartrees/Bohr)
 Number     Number              X              Y              Z
 -------------------------------------------------------------------
      1       16           0.000376975   -0.000225308    0.000015685
      2        8          -0.000188851   -0.000042161    0.000006993
      3        8          -0.000278708    0.000235934   -0.000028419
      4        1           0.000090584    0.000031535    0.000005741
 -------------------------------------------------------------------
 Cartesian Forces:  Max     0.000376975 RMS     0.000176540

 GradGradGradGradGradGradGradGradGradGradGradGradGradGradGradGradGradGrad
 Berny optimization.
 Using GEDIIS/GDIIS optimizer.
 Internal  Forces:  Max     0.000366215 RMS     0.000172210
 Search for a local minimum.
 Step number   4 out of a maximum of   20
 All quantities printed in internal units (Hartrees-Bohrs-Radians)
 Mixed Optimization -- En-DIIS/RFO-DIIS
 Swaping is turned off.
 Update second derivatives using D2CorX and points    1    2    3    4
 DE= -1.96D-06 DEPred=-1.53D-06 R= 1.29D+00
 SS=  1.41D+00  RLast= 4.11D-03 DXNew= 5.0454D-01 1.2342D-02
 Trust test= 1.29D+00 RLast= 4.11D-03 DXMaxT set to 3.00D-01
 The second derivative matrix:
                          R1        R2        R3        A1        A2
           R1           0.31074
           R2          -0.01297   0.81078
           R3          -0.00571  -0.00250   0.55001
           A1           0.01834  -0.00821   0.00723   0.24891
           A2           0.05474  -0.01341   0.00982  -0.00773   0.13342
           D1           0.00724  -0.00049  -0.00155  -0.00273  -0.00524
                          D1
           D1           0.02044
 ITU=  1  1  1  0
     Eigenvalues ---    0.01977   0.11679   0.24693   0.32875   0.55045
     Eigenvalues ---    0.81160
 En-DIIS/RFO-DIIS IScMMF=        0 using points:     4    3
 RFO step:  Lambda=-2.85766348D-07.
 DidBck=F Rises=F RFO-DIIS coefs:    1.43045   -0.43045
 Iteration  1 RMS(Cart)=  0.00149377 RMS(Int)=  0.00000201
 Iteration  2 RMS(Cart)=  0.00000173 RMS(Int)=  0.00000000
 Iteration  3 RMS(Cart)=  0.00000000 RMS(Int)=  0.00000000
 Variable       Old X    -DE/DX   Delta X   Delta X   Delta X     New X
                                  (DIIS)     (GDIIS)  (Total)
    R1        3.06973  -0.00009  -0.00084   0.00018  -0.00066   3.06907
    R2        2.76168   0.00037   0.00007   0.00041   0.00048   2.76215
    R3        1.82490   0.00002   0.00003  -0.00003   0.00000   1.82490
    A1        1.89933   0.00007   0.00043  -0.00001   0.00042   1.89975
    A2        1.90833   0.00017   0.00147   0.00023   0.00171   1.91004
    D1        0.34068   0.00003   0.00028   0.00210   0.00238   0.34306
         Item               Value     Threshold  Converged?
 Maximum Force            0.000366     0.000002     NO 
 RMS     Force            0.000172     0.000001     NO 
 Maximum Displacement     0.002490     0.000006     NO 
 RMS     Displacement     0.001494     0.000004     NO 
 Predicted change in Energy=-3.170751D-07
 GradGradGradGradGradGradGradGradGradGradGradGradGradGradGradGradGradGrad

                          Input orientation:                          
 ---------------------------------------------------------------------
 Center     Atomic      Atomic             Coordinates (Angstroms)
 Number     Number       Type             X           Y           Z
 ---------------------------------------------------------------------
      1         16           0       -0.136285   -0.471973    0.014625
      2          8           0        1.315078    0.254862   -0.039181
      3          8           0       -1.178721    0.552135   -0.017091
      4          1           0        1.221969    1.178530    0.226781
 ---------------------------------------------------------------------
                    Distance matrix (angstroms):
                    1          2          3          4
     1  S    0.000000
     2  O    1.624080   0.000000
     3  O    1.461669   2.511551   0.000000
     4  H    2.148028   0.965695   2.493021   0.000000
 Stoichiometry    HO2S(2)
 Framework group  C1[X(HO2S)]
 Deg. of freedom     6
 Full point group                 C1      NOp   1
 Largest Abelian subgroup         C1      NOp   1
 Largest concise Abelian subgroup C1      NOp   1
                         Standard orientation:                         
 ---------------------------------------------------------------------
 Center     Atomic      Atomic             Coordinates (Angstroms)
 Number     Number       Type             X           Y           Z
 ---------------------------------------------------------------------
      1         16           0       -0.138878   -0.474900    0.014358
      2          8           0        1.310319    0.256256   -0.039260
      3          8           0       -1.184361    0.546083   -0.017770
      4          1           0        1.214393    1.179690    0.226516
 ---------------------------------------------------------------------
 Rotational constants (GHZ):     34.9909848      9.6971332      7.6112843
 Standard basis: 6-311+G(3df) (5D, 7F)
 There are   128 symmetry adapted basis functions of A   symmetry.
 Integral buffers will be    131072 words long.
 Raffenetti 2 integral format.
 Two-electron integral symmetry is turned on.
   128 basis functions,   193 primitive gaussians,   146 cartesian basis functions
    17 alpha electrons       16 beta electrons
       nuclear repulsion energy       111.5553573647 Hartrees.
 NAtoms=    4 NActive=    4 NUniq=    4 SFac= 1.00D+00 NAtFMM=   60 NAOKFM=F Big=F
 Nuclear repulsion after empirical dispersion term =      111.5551085742 Hartrees.
 One-electron integrals computed using PRISM.
 NBasis=   128 RedAO= T  NBF=   128
 NBsUse=   128 1.00D-06 NBFU=   128
 Initial guess read from the read-write file.
 B after Tr=     0.000000    0.000000    0.000000
         Rot=    1.000000    0.000000    0.000000    0.000000 Ang=   0.00 deg.
 Initial guess orbital symmetries:
 Alpha Orbitals:
       Occupied  (A) (A) (A) (A) (A) (A) (A) (A) (A) (A) (A) (A)
                 (A) (A) (A) (A) (A)
       Virtual   (A) (A) (A) (A) (A) (A) (A) (A) (A) (A) (A) (A)
                 (A) (A) (A) (A) (A) (A) (A) (A) (A) (A) (A) (A)
                 (A) (A) (A) (A) (A) (A) (A) (A) (A) (A) (A) (A)
                 (A) (A) (A) (A) (A) (A) (A) (A) (A) (A) (A) (A)
                 (A) (A) (A) (A) (A) (A) (A) (A) (A) (A) (A) (A)
                 (A) (A) (A) (A) (A) (A) (A) (A) (A) (A) (A) (A)
                 (A) (A) (A) (A) (A) (A) (A) (A) (A) (A) (A) (A)
                 (A) (A) (A) (A) (A) (A) (A) (A) (A) (A) (A) (A)
                 (A) (A) (A) (A) (A) (A) (A) (A) (A) (A) (A) (A)
                 (A) (A) (A)
 Beta  Orbitals:
       Occupied  (A) (A) (A) (A) (A) (A) (A) (A) (A) (A) (A) (A)
                 (A) (A) (A) (A)
       Virtual   (A) (A) (A) (A) (A) (A) (A) (A) (A) (A) (A) (A)
                 (A) (A) (A) (A) (A) (A) (A) (A) (A) (A) (A) (A)
                 (A) (A) (A) (A) (A) (A) (A) (A) (A) (A) (A) (A)
                 (A) (A) (A) (A) (A) (A) (A) (A) (A) (A) (A) (A)
                 (A) (A) (A) (A) (A) (A) (A) (A) (A) (A) (A) (A)
                 (A) (A) (A) (A) (A) (A) (A) (A) (A) (A) (A) (A)
                 (A) (A) (A) (A) (A) (A) (A) (A) (A) (A) (A) (A)
                 (A) (A) (A) (A) (A) (A) (A) (A) (A) (A) (A) (A)
                 (A) (A) (A) (A) (A) (A) (A) (A) (A) (A) (A) (A)
                 (A) (A) (A) (A)
 Initial guess <Sx>= 0.0000 <Sy>= 0.0000 <Sz>= 0.5000 <S**2>= 0.7555 S= 0.5027
 Requested convergence on RMS density matrix=1.00D-08 within 128 cycles.
 Requested convergence on MAX density matrix=1.00D-06.
 Requested convergence on             energy=1.00D-06.
 No special actions if energy rises.
 FoFJK:  IHMeth= 1 ICntrl=     0 DoSepK=T KAlg= 1 I1Cent= 0 FoldK=F
 FoFJK:  IHMeth= 1 ICntrl=     0 DoSepK=T KAlg= 1 I1Cent= 0 FoldK=F
 FoFJK:  IHMeth= 1 ICntrl=     0 DoSepK=T KAlg= 1 I1Cent= 0 FoldK=F
 FoFJK:  IHMeth= 1 ICntrl=     0 DoSepK=T KAlg= 1 I1Cent= 0 FoldK=F
 FoFJK:  IHMeth= 1 ICntrl=     0 DoSepK=T KAlg= 1 I1Cent= 0 FoldK=F
 FoFJK:  IHMeth= 1 ICntrl=     0 DoSepK=T KAlg= 1 I1Cent= 0 FoldK=F
 FoFJK:  IHMeth= 1 ICntrl=     0 DoSepK=T KAlg= 1 I1Cent= 0 FoldK=F
 FoFJK:  IHMeth= 1 ICntrl=     0 DoSepK=T KAlg= 1 I1Cent= 0 FoldK=F
 FoFJK:  IHMeth= 1 ICntrl=     0 DoSepK=T KAlg= 1 I1Cent= 0 FoldK=F
 FoFJK:  IHMeth= 1 ICntrl=     0 DoSepK=T KAlg= 1 I1Cent= 0 FoldK=F
 SCF Done:  E(UwB97XD) =  -549.221252450     A.U. after   10 cycles
             Convg  =    0.4084D-08             -V/T =  2.0016
 <Sx>= 0.0000 <Sy>= 0.0000 <Sz>= 0.5000 <S**2>= 0.7555 S= 0.5027
 <L.S>= 0.000000000000E+00
 Annihilation of the first spin contaminant:
 S**2 before annihilation     0.7555,   after     0.7500
 Calling FoFJK, ICntrl=      2127 FMM=F ISym2X=0 I1Cent= 0 IOpClX= 1 NMat=1 NMatS=1 NMatT=0.
 FoFJK:  IHMeth= 1 ICntrl=  2127 DoSepK=T KAlg= 1 I1Cent= 0 FoldK=F
 ***** Axes restored to original set *****
 -------------------------------------------------------------------
 Center     Atomic                   Forces (Hartrees/Bohr)
 Number     Number              X              Y              Z
 -------------------------------------------------------------------
      1       16           0.000042694   -0.000046945    0.000036586
      2        8           0.000007760    0.000017363   -0.000024156
      3        8          -0.000049552    0.000042524   -0.000026278
      4        1          -0.000000902   -0.000012942    0.000013848
 -------------------------------------------------------------------
 Cartesian Forces:  Max     0.000049552 RMS     0.000031124

 GradGradGradGradGradGradGradGradGradGradGradGradGradGradGradGradGradGrad
 Berny optimization.
 Using GEDIIS/GDIIS optimizer.
 Internal  Forces:  Max     0.000067375 RMS     0.000032864
 Search for a local minimum.
 Step number   5 out of a maximum of   20
 All quantities printed in internal units (Hartrees-Bohrs-Radians)
 Mixed Optimization -- En-DIIS/RFO-DIIS
 Swaping is turned off.
 Update second derivatives using D2CorX and points    1    2    3    4    5
 DE= -3.51D-07 DEPred=-3.17D-07 R= 1.11D+00
 Trust test= 1.11D+00 RLast= 3.07D-03 DXMaxT set to 3.00D-01
 The second derivative matrix:
                          R1        R2        R3        A1        A2
           R1           0.30535
           R2          -0.03984   0.73214
           R3          -0.00470   0.00536   0.55738
           A1           0.01961  -0.00812   0.01167   0.25072
           A2           0.04668  -0.00868   0.01747  -0.00284   0.15042
           D1           0.01332  -0.02400  -0.00485  -0.00849  -0.01834
                          D1
           D1           0.01999
 ITU=  0  1  1  1  0
     Eigenvalues ---    0.01491   0.13985   0.24670   0.31874   0.55849
     Eigenvalues ---    0.73731
 En-DIIS/RFO-DIIS IScMMF=        0 using points:     5    4    3
 RFO step:  Lambda=-1.99016785D-08.
 DidBck=F Rises=F RFO-DIIS coefs:    1.40571   -0.51231    0.10660
 Iteration  1 RMS(Cart)=  0.00113390 RMS(Int)=  0.00000154
 Iteration  2 RMS(Cart)=  0.00000163 RMS(Int)=  0.00000000
 Iteration  3 RMS(Cart)=  0.00000000 RMS(Int)=  0.00000000
 Variable       Old X    -DE/DX   Delta X   Delta X   Delta X     New X
                                  (DIIS)     (GDIIS)  (Total)
    R1        3.06907   0.00001  -0.00006  -0.00008  -0.00014   3.06893
    R2        2.76215   0.00007   0.00018   0.00001   0.00019   2.76234
    R3        1.82490  -0.00001  -0.00001  -0.00001  -0.00001   1.82489
    A1        1.89975   0.00001   0.00007   0.00008   0.00014   1.89989
    A2        1.91004  -0.00001   0.00033   0.00001   0.00033   1.91037
    D1        0.34306   0.00004   0.00090   0.00219   0.00309   0.34615
         Item               Value     Threshold  Converged?
 Maximum Force            0.000067     0.000002     NO 
 RMS     Force            0.000033     0.000001     NO 
 Maximum Displacement     0.001501     0.000006     NO 
 RMS     Displacement     0.001134     0.000004     NO 
 Predicted change in Energy=-5.927026D-08
 GradGradGradGradGradGradGradGradGradGradGradGradGradGradGradGradGradGrad

                          Input orientation:                          
 ---------------------------------------------------------------------
 Center     Atomic      Atomic             Coordinates (Angstroms)
 Number     Number       Type             X           Y           Z
 ---------------------------------------------------------------------
      1         16           0       -0.136265   -0.471878    0.015257
      2          8           0        1.314897    0.255084   -0.039976
      3          8           0       -1.179092    0.551937   -0.017535
      4          1           0        1.222501    1.178412    0.227388
 ---------------------------------------------------------------------
                    Distance matrix (angstroms):
                    1          2          3          4
     1  S    0.000000
     2  O    1.624007   0.000000
     3  O    1.461767   2.511695   0.000000
     4  H    2.148186   0.965689   2.494015   0.000000
 Stoichiometry    HO2S(2)
 Framework group  C1[X(HO2S)]
 Deg. of freedom     6
 Full point group                 C1      NOp   1
 Largest Abelian subgroup         C1      NOp   1
 Largest concise Abelian subgroup C1      NOp   1
                         Standard orientation:                         
 ---------------------------------------------------------------------
 Center     Atomic      Atomic             Coordinates (Angstroms)
 Number     Number       Type             X           Y           Z
 ---------------------------------------------------------------------
      1         16           0       -0.138813   -0.474851    0.014475
      2          8           0        1.310285    0.256306   -0.039604
      3          8           0       -1.184553    0.546002   -0.017905
      4          1           0        1.215142    1.179150    0.228464
 ---------------------------------------------------------------------
 Rotational constants (GHZ):     34.9965890      9.6955594      7.6108964
 Standard basis: 6-311+G(3df) (5D, 7F)
 There are   128 symmetry adapted basis functions of A   symmetry.
 Integral buffers will be    131072 words long.
 Raffenetti 2 integral format.
 Two-electron integral symmetry is turned on.
   128 basis functions,   193 primitive gaussians,   146 cartesian basis functions
    17 alpha electrons       16 beta electrons
       nuclear repulsion energy       111.5524385510 Hartrees.
 NAtoms=    4 NActive=    4 NUniq=    4 SFac= 1.00D+00 NAtFMM=   60 NAOKFM=F Big=F
 Nuclear repulsion after empirical dispersion term =      111.5521895740 Hartrees.
 One-electron integrals computed using PRISM.
 NBasis=   128 RedAO= T  NBF=   128
 NBsUse=   128 1.00D-06 NBFU=   128
 Initial guess read from the read-write file.
 B after Tr=     0.000000    0.000000    0.000000
         Rot=    1.000000    0.000000    0.000000    0.000000 Ang=   0.00 deg.
 Initial guess orbital symmetries:
 Alpha Orbitals:
       Occupied  (A) (A) (A) (A) (A) (A) (A) (A) (A) (A) (A) (A)
                 (A) (A) (A) (A) (A)
       Virtual   (A) (A) (A) (A) (A) (A) (A) (A) (A) (A) (A) (A)
                 (A) (A) (A) (A) (A) (A) (A) (A) (A) (A) (A) (A)
                 (A) (A) (A) (A) (A) (A) (A) (A) (A) (A) (A) (A)
                 (A) (A) (A) (A) (A) (A) (A) (A) (A) (A) (A) (A)
                 (A) (A) (A) (A) (A) (A) (A) (A) (A) (A) (A) (A)
                 (A) (A) (A) (A) (A) (A) (A) (A) (A) (A) (A) (A)
                 (A) (A) (A) (A) (A) (A) (A) (A) (A) (A) (A) (A)
                 (A) (A) (A) (A) (A) (A) (A) (A) (A) (A) (A) (A)
                 (A) (A) (A) (A) (A) (A) (A) (A) (A) (A) (A) (A)
                 (A) (A) (A)
 Beta  Orbitals:
       Occupied  (A) (A) (A) (A) (A) (A) (A) (A) (A) (A) (A) (A)
                 (A) (A) (A) (A)
       Virtual   (A) (A) (A) (A) (A) (A) (A) (A) (A) (A) (A) (A)
                 (A) (A) (A) (A) (A) (A) (A) (A) (A) (A) (A) (A)
                 (A) (A) (A) (A) (A) (A) (A) (A) (A) (A) (A) (A)
                 (A) (A) (A) (A) (A) (A) (A) (A) (A) (A) (A) (A)
                 (A) (A) (A) (A) (A) (A) (A) (A) (A) (A) (A) (A)
                 (A) (A) (A) (A) (A) (A) (A) (A) (A) (A) (A) (A)
                 (A) (A) (A) (A) (A) (A) (A) (A) (A) (A) (A) (A)
                 (A) (A) (A) (A) (A) (A) (A) (A) (A) (A) (A) (A)
                 (A) (A) (A) (A) (A) (A) (A) (A) (A) (A) (A) (A)
                 (A) (A) (A) (A)
 Initial guess <Sx>= 0.0000 <Sy>= 0.0000 <Sz>= 0.5000 <S**2>= 0.7555 S= 0.5027
 Requested convergence on RMS density matrix=1.00D-08 within 128 cycles.
 Requested convergence on MAX density matrix=1.00D-06.
 Requested convergence on             energy=1.00D-06.
 No special actions if energy rises.
 FoFJK:  IHMeth= 1 ICntrl=     0 DoSepK=T KAlg= 1 I1Cent= 0 FoldK=F
 FoFJK:  IHMeth= 1 ICntrl=     0 DoSepK=T KAlg= 1 I1Cent= 0 FoldK=F
 FoFJK:  IHMeth= 1 ICntrl=     0 DoSepK=T KAlg= 1 I1Cent= 0 FoldK=F
 FoFJK:  IHMeth= 1 ICntrl=     0 DoSepK=T KAlg= 1 I1Cent= 0 FoldK=F
 FoFJK:  IHMeth= 1 ICntrl=     0 DoSepK=T KAlg= 1 I1Cent= 0 FoldK=F
 FoFJK:  IHMeth= 1 ICntrl=     0 DoSepK=T KAlg= 1 I1Cent= 0 FoldK=F
 FoFJK:  IHMeth= 1 ICntrl=     0 DoSepK=T KAlg= 1 I1Cent= 0 FoldK=F
 FoFJK:  IHMeth= 1 ICntrl=     0 DoSepK=T KAlg= 1 I1Cent= 0 FoldK=F
 FoFJK:  IHMeth= 1 ICntrl=     0 DoSepK=T KAlg= 1 I1Cent= 0 FoldK=F
 FoFJK:  IHMeth= 1 ICntrl=     0 DoSepK=T KAlg= 1 I1Cent= 0 FoldK=F
 SCF Done:  E(UwB97XD) =  -549.221252538     A.U. after   10 cycles
             Convg  =    0.3728D-08             -V/T =  2.0016
 <Sx>= 0.0000 <Sy>= 0.0000 <Sz>= 0.5000 <S**2>= 0.7555 S= 0.5027
 <L.S>= 0.000000000000E+00
 Annihilation of the first spin contaminant:
 S**2 before annihilation     0.7555,   after     0.7500
 Calling FoFJK, ICntrl=      2127 FMM=F ISym2X=0 I1Cent= 0 IOpClX= 1 NMat=1 NMatS=1 NMatT=0.
 FoFJK:  IHMeth= 1 ICntrl=  2127 DoSepK=T KAlg= 1 I1Cent= 0 FoldK=F
 ***** Axes restored to original set *****
 -------------------------------------------------------------------
 Center     Atomic                   Forces (Hartrees/Bohr)
 Number     Number              X              Y              Z
 -------------------------------------------------------------------
      1       16          -0.000064301    0.000023490    0.000036860
      2        8           0.000035375    0.000025904   -0.000027933
      3        8           0.000040830   -0.000036447   -0.000023851
      4        1          -0.000011905   -0.000012947    0.000014924
 -------------------------------------------------------------------
 Cartesian Forces:  Max     0.000064301 RMS     0.000032716

 GradGradGradGradGradGradGradGradGradGradGradGradGradGradGradGradGradGrad
 Berny optimization.
 Using GEDIIS/GDIIS optimizer.
 Internal  Forces:  Max     0.000052409 RMS     0.000031902
 Search for a local minimum.
 Step number   6 out of a maximum of   20
 All quantities printed in internal units (Hartrees-Bohrs-Radians)
 Mixed Optimization -- En-DIIS/RFO-DIIS
 Swaping is turned off.
 Update second derivatives using D2CorX and points    1    2    3    4    5
                                                      6
 DE= -8.79D-08 DEPred=-5.93D-08 R= 1.48D+00
 Trust test= 1.48D+00 RLast= 3.12D-03 DXMaxT set to 3.00D-01
 The second derivative matrix:
                          R1        R2        R3        A1        A2
           R1           0.32340
           R2          -0.12162   1.20787
           R3          -0.00170   0.01813   0.55592
           A1           0.00619   0.07527   0.01168   0.26434
           A2           0.03407   0.11304   0.01636   0.01529   0.17267
           D1           0.01183  -0.05476  -0.00153  -0.01170  -0.01807
                          D1
           D1           0.00661
 ITU=  0  0  1  1  1  0
     Eigenvalues ---    0.00248   0.14766   0.25417   0.32597   0.55623
     Eigenvalues ---    1.24430
 En-DIIS/RFO-DIIS IScMMF=        0 using points:     6    5    4    3
 RFO step:  Lambda=-2.99470217D-08.
 DidBck=F Rises=F RFO-DIIS coefs:    5.42265   -5.19529    0.93281   -0.16016
 Iteration  1 RMS(Cart)=  0.00608493 RMS(Int)=  0.00004646
 Iteration  2 RMS(Cart)=  0.00004953 RMS(Int)=  0.00000000
 Iteration  3 RMS(Cart)=  0.00000000 RMS(Int)=  0.00000000
 Variable       Old X    -DE/DX   Delta X   Delta X   Delta X     New X
                                  (DIIS)     (GDIIS)  (Total)
    R1        3.06893   0.00003  -0.00042   0.00002  -0.00040   3.06853
    R2        2.76234  -0.00005   0.00048  -0.00010   0.00038   2.76272
    R3        1.82489  -0.00001  -0.00005   0.00002  -0.00003   1.82486
    A1        1.89989  -0.00001   0.00046  -0.00007   0.00039   1.90029
    A2        1.91037  -0.00003   0.00071   0.00042   0.00113   1.91150
    D1        0.34615   0.00004   0.01193   0.00528   0.01721   0.36336
         Item               Value     Threshold  Converged?
 Maximum Force            0.000052     0.000002     NO 
 RMS     Force            0.000032     0.000001     NO 
 Maximum Displacement     0.008464     0.000006     NO 
 RMS     Displacement     0.006097     0.000004     NO 
 Predicted change in Energy=-2.026059D-07
 GradGradGradGradGradGradGradGradGradGradGradGradGradGradGradGradGradGrad

                          Input orientation:                          
 ---------------------------------------------------------------------
 Center     Atomic      Atomic             Coordinates (Angstroms)
 Number     Number       Type             X           Y           Z
 ---------------------------------------------------------------------
      1         16           0       -0.136261   -0.471386    0.018808
      2          8           0        1.313962    0.256326   -0.044454
      3          8           0       -1.180611    0.550953   -0.019975
      4          1           0        1.224951    1.177662    0.230756
 ---------------------------------------------------------------------
                    Distance matrix (angstroms):
                    1          2          3          4
     1  S    0.000000
     2  O    1.623797   0.000000
     3  O    1.461968   2.512031   0.000000
     4  H    2.148763   0.965672   2.498472   0.000000
 Stoichiometry    HO2S(2)
 Framework group  C1[X(HO2S)]
 Deg. of freedom     6
 Full point group                 C1      NOp   1
 Largest Abelian subgroup         C1      NOp   1
 Largest concise Abelian subgroup C1      NOp   1
                         Standard orientation:                         
 ---------------------------------------------------------------------
 Center     Atomic      Atomic             Coordinates (Angstroms)
 Number     Number       Type             X           Y           Z
 ---------------------------------------------------------------------
      1         16           0       -0.138681   -0.474621    0.015124
      2          8           0        1.310112    0.256479   -0.041513
      3          8           0       -1.185100    0.545779   -0.018657
      4          1           0        1.218805    1.175870    0.239388
 ---------------------------------------------------------------------
 Rotational constants (GHZ):     35.0175567      9.6901228      7.6103547
 Standard basis: 6-311+G(3df) (5D, 7F)
 There are   128 symmetry adapted basis functions of A   symmetry.
 Integral buffers will be    131072 words long.
 Raffenetti 2 integral format.
 Two-electron integral symmetry is turned on.
   128 basis functions,   193 primitive gaussians,   146 cartesian basis functions
    17 alpha electrons       16 beta electrons
       nuclear repulsion energy       111.5456438867 Hartrees.
 NAtoms=    4 NActive=    4 NUniq=    4 SFac= 1.00D+00 NAtFMM=   60 NAOKFM=F Big=F
 Nuclear repulsion after empirical dispersion term =      111.5453941402 Hartrees.
 One-electron integrals computed using PRISM.
 NBasis=   128 RedAO= T  NBF=   128
 NBsUse=   128 1.00D-06 NBFU=   128
 Initial guess read from the read-write file.
 B after Tr=     0.000000    0.000000    0.000000
         Rot=    1.000000    0.000000    0.000000    0.000000 Ang=   0.00 deg.
 Initial guess orbital symmetries:
 Alpha Orbitals:
       Occupied  (A) (A) (A) (A) (A) (A) (A) (A) (A) (A) (A) (A)
                 (A) (A) (A) (A) (A)
       Virtual   (A) (A) (A) (A) (A) (A) (A) (A) (A) (A) (A) (A)
                 (A) (A) (A) (A) (A) (A) (A) (A) (A) (A) (A) (A)
                 (A) (A) (A) (A) (A) (A) (A) (A) (A) (A) (A) (A)
                 (A) (A) (A) (A) (A) (A) (A) (A) (A) (A) (A) (A)
                 (A) (A) (A) (A) (A) (A) (A) (A) (A) (A) (A) (A)
                 (A) (A) (A) (A) (A) (A) (A) (A) (A) (A) (A) (A)
                 (A) (A) (A) (A) (A) (A) (A) (A) (A) (A) (A) (A)
                 (A) (A) (A) (A) (A) (A) (A) (A) (A) (A) (A) (A)
                 (A) (A) (A) (A) (A) (A) (A) (A) (A) (A) (A) (A)
                 (A) (A) (A)
 Beta  Orbitals:
       Occupied  (A) (A) (A) (A) (A) (A) (A) (A) (A) (A) (A) (A)
                 (A) (A) (A) (A)
       Virtual   (A) (A) (A) (A) (A) (A) (A) (A) (A) (A) (A) (A)
                 (A) (A) (A) (A) (A) (A) (A) (A) (A) (A) (A) (A)
                 (A) (A) (A) (A) (A) (A) (A) (A) (A) (A) (A) (A)
                 (A) (A) (A) (A) (A) (A) (A) (A) (A) (A) (A) (A)
                 (A) (A) (A) (A) (A) (A) (A) (A) (A) (A) (A) (A)
                 (A) (A) (A) (A) (A) (A) (A) (A) (A) (A) (A) (A)
                 (A) (A) (A) (A) (A) (A) (A) (A) (A) (A) (A) (A)
                 (A) (A) (A) (A) (A) (A) (A) (A) (A) (A) (A) (A)
                 (A) (A) (A) (A) (A) (A) (A) (A) (A) (A) (A) (A)
                 (A) (A) (A) (A)
 Initial guess <Sx>= 0.0000 <Sy>= 0.0000 <Sz>= 0.5000 <S**2>= 0.7555 S= 0.5027
 Requested convergence on RMS density matrix=1.00D-08 within 128 cycles.
 Requested convergence on MAX density matrix=1.00D-06.
 Requested convergence on             energy=1.00D-06.
 No special actions if energy rises.
 FoFJK:  IHMeth= 1 ICntrl=     0 DoSepK=T KAlg= 1 I1Cent= 0 FoldK=F
 FoFJK:  IHMeth= 1 ICntrl=     0 DoSepK=T KAlg= 1 I1Cent= 0 FoldK=F
 FoFJK:  IHMeth= 1 ICntrl=     0 DoSepK=T KAlg= 1 I1Cent= 0 FoldK=F
 FoFJK:  IHMeth= 1 ICntrl=     0 DoSepK=T KAlg= 1 I1Cent= 0 FoldK=F
 FoFJK:  IHMeth= 1 ICntrl=     0 DoSepK=T KAlg= 1 I1Cent= 0 FoldK=F
 FoFJK:  IHMeth= 1 ICntrl=     0 DoSepK=T KAlg= 1 I1Cent= 0 FoldK=F
 FoFJK:  IHMeth= 1 ICntrl=     0 DoSepK=T KAlg= 1 I1Cent= 0 FoldK=F
 FoFJK:  IHMeth= 1 ICntrl=     0 DoSepK=T KAlg= 1 I1Cent= 0 FoldK=F
 FoFJK:  IHMeth= 1 ICntrl=     0 DoSepK=T KAlg= 1 I1Cent= 0 FoldK=F
 FoFJK:  IHMeth= 1 ICntrl=     0 DoSepK=T KAlg= 1 I1Cent= 0 FoldK=F
 FoFJK:  IHMeth= 1 ICntrl=     0 DoSepK=T KAlg= 1 I1Cent= 0 FoldK=F
 FoFJK:  IHMeth= 1 ICntrl=     0 DoSepK=T KAlg= 1 I1Cent= 0 FoldK=F
 SCF Done:  E(UwB97XD) =  -549.221252797     A.U. after   12 cycles
             Convg  =    0.4789D-08             -V/T =  2.0016
 <Sx>= 0.0000 <Sy>= 0.0000 <Sz>= 0.5000 <S**2>= 0.7555 S= 0.5027
 <L.S>= 0.000000000000E+00
 Annihilation of the first spin contaminant:
 S**2 before annihilation     0.7555,   after     0.7500
 Calling FoFJK, ICntrl=      2127 FMM=F ISym2X=0 I1Cent= 0 IOpClX= 1 NMat=1 NMatS=1 NMatT=0.
 FoFJK:  IHMeth= 1 ICntrl=  2127 DoSepK=T KAlg= 1 I1Cent= 0 FoldK=F
 ***** Axes restored to original set *****
 -------------------------------------------------------------------
 Center     Atomic                   Forces (Hartrees/Bohr)
 Number     Number              X              Y              Z
 -------------------------------------------------------------------
[...]
     1  S    0.000000
     2  O    1.623850   0.000000
     3  O    1.461632   2.512566   0.000000
     4  H    2.149345   0.965629   2.506104   0.000000
                           Interatomic angles:
       O2-S1-O3=108.9269       S1-O2-H4=109.5681       O3-S1-H4= 85.6598
       O2-H4-O3= 79.2831
                              Dihedral angles:
     H4-O2-S1-O3=  22.65

 Internal coordinates for the vibr.aver. structure at 0K (Sz)

                           Interatomic distances:
                    1          2          3          4
     1  S    0.000000
     2  O    1.627932   0.000000
     3  O    1.464131   2.530530   0.000000
     4  H    2.150748   0.900820   2.618826   0.000000
                           Interatomic angles:
       O2-S1-O3=109.7358       S1-O2-H4=113.3843       O3-S1-H4= 90.8084
       O3-O2-H4= 85.5113
                              Dihedral angles:
     H4-O2-S1-O3=  34.67

 X matrix of Anharmonic Constants (cm-1)
                1             2             3             4             5 
      1       -83.688
      2        -4.045        -7.585
      3       -29.233        -2.296       -11.414
      4         0.016         1.936        -6.442        -4.630
      5         5.791         3.499         1.308        -4.992        -4.687
      6       -15.993       -10.943       -59.974       -10.037        32.502
                6 
      6       268.767

 ZPEharm    =  3732.18495 cm-1  =  10.671 Kcal/mol  =  44.647 Kj/mol
 ZPEfund    =  3839.49654 cm-1  =  10.978 Kcal/mol  =  45.931 KJ/mol
 ZPEaver    =  3785.84075 cm-1  =  10.824 Kcal/mol  =  45.289 KJ/mol
 -1/4sumXii =   -39.19086 cm-1  =  -0.112 Kcal/mol  =  -0.469 KJ/mol
 x0         =    55.98978 cm-1  =   0.160 Kcal/mol  =   0.670 KJ/mol
 ZPEtot     =  3802.63966 cm-1  =  10.872 Kcal/mol  =  45.490 KJ/mol
 ZPEtot/ZPEharm = 1.01888   ZPEfund/ZPEharm= 1.02875

 Vibrational Energies and Rotational Constants (cm-1)
 Mode(Quanta)     E(harm)     E(anharm)    Aa(z)       Ba(x)       Ca(y)
 Equilibrium Geometry                     1.170013    0.322896    0.253851
 Ground State    3732.185     3802.640    1.199802    0.316254    0.251978
 Fundamental Bands (DE w.r.t. Ground State)
  1(1)           3809.860     3620.751    1.203988    0.314933    0.251974
  2(1)           1235.338     1214.244    1.196959    0.315169    0.251486
  3(1)           1105.727     1034.581    1.210114    0.314887    0.251419
  4(1)            809.933      790.914    1.198360    0.313833    0.250307
  5(1)            410.276      419.956    1.201415    0.318361    0.251304
  6(1)             93.236      598.548    1.247556    0.307058    0.251634
 Overtones (DE w.r.t. Ground State)
  1(2)           7619.720     7074.126    1.208175    0.313612    0.251969
  2(2)           2470.676     2413.317    1.194116    0.314083    0.250994
  3(2)           2211.454     2046.333    1.220426    0.313520    0.250861
  4(2)           1619.867     1572.568    1.196917    0.311412    0.248637
  5(2)            820.551      830.538    1.203028    0.320469    0.250629
  6(2)            186.472     1734.631    1.295309    0.297862    0.251290
 Combination Bands (DE w.r.t. Ground State)
  2(1)   1(1)    5045.198     4830.950    1.201145    0.313847    0.251481
  3(1)   1(1)    4915.587     4626.099    1.214301    0.313566    0.251415
  3(1)   2(1)    2341.065     2246.528    1.207271    0.313802    0.250927
  4(1)   1(1)    4619.793     4411.681    1.202546    0.312512    0.250303
  4(1)   2(1)    2045.271     2007.093    1.195517    0.312748    0.249815
  4(1)   3(1)    1915.660     1819.052    1.208672    0.312466    0.249749
  5(1)   1(1)    4220.136     4046.498    1.205601    0.317040    0.251299
  5(1)   2(1)    1645.614     1637.699    1.198572    0.317276    0.250812
  5(1)   3(1)    1516.003     1455.845    1.211727    0.316994    0.250745
  5(1)   4(1)    1220.209     1205.877    1.199973    0.315940    0.249633
  6(1)   1(1)    3903.096     4203.306    1.251742    0.305737    0.251630
  6(1)   2(1)    1328.574     1801.848    1.244713    0.305973    0.251142
  6(1)   3(1)    1198.963     1573.154    1.257868    0.305691    0.251075
  6(1)   4(1)     903.169     1379.425    1.246113    0.304637    0.249963
  6(1)   5(1)     503.512     1051.006    1.249169    0.309165    0.250960

 ZPE(harm) = 0.44647D+02 kJ/mol        ZPE(anh)= 0.45490D+02 kJ/mol

 Input values of T(K) and P(atm): 298.15   1.00
                    Harmonic value     SPT anharmonic value
 Qvib               0.49623D-07          0.13511D-07
 QZvib              0.32920D+01          0.12592D+01
 Energy             0.55134D+02          0.54450D+02         kJ/mol
 Enthalpy           0.57613D+02          0.56929D+02         kJ/mol
 Entropy            0.28020D+03          0.26709D+03         J/(mol K)
 Sp.Heat(V)         0.43748D+02          0.40274D+02         J/(mol K)
 Sp.Heat(P)         0.52063D+02          0.48589D+02         J/(mol K)

 T =  298.15 K;  P =   1.00 atm
                    Harmonic value     SPT anharmonic value
 Qvib               0.49623D-07          0.13511D-07
 QZvib              0.32920D+01          0.12592D+01
 Energy             0.55134D+02          0.54450D+02         kJ/mol
 Enthalpy           0.57613D+02          0.56929D+02         kJ/mol
 Entropy            0.28020D+03          0.26709D+03         J/(mol K)
 Sp.Heat(V)         0.43748D+02          0.40274D+02         J/(mol K)
 Sp.Heat(P)         0.52063D+02          0.48589D+02         J/(mol K)

 T =  500.00 K;  P =   1.00 atm
                    Harmonic value     SPT anharmonic value
 Qvib               0.15812D-03          0.37201D-04
 QZvib              0.72966D+01          0.21024D+01
 Energy             0.64970D+02          0.63862D+02         kJ/mol
 Enthalpy           0.69128D+02          0.68019D+02         kJ/mol
 Entropy            0.30949D+03          0.29524D+03         J/(mol K)
 Sp.Heat(V)         0.53013D+02          0.51815D+02         J/(mol K)
 Sp.Heat(P)         0.61327D+02          0.60130D+02         J/(mol K)

 T = 1000.00 K;  P =   1.00 atm
                    Harmonic value     SPT anharmonic value
 Qvib               0.18344D+00          0.37183D-01
 QZvib              0.39405D+02          0.88397D+01
 Energy             0.94433D+02          0.93103D+02         kJ/mol
 Enthalpy           0.10275D+03          0.10142D+03         kJ/mol
 Entropy            0.35570D+03          0.34110D+03         J/(mol K)
 Sp.Heat(V)         0.63000D+02          0.62970D+02         J/(mol K)
 Sp.Heat(P)         0.71315D+02          0.71285D+02         J/(mol K)

 T = 1500.00 K;  P =   1.00 atm
                    Harmonic value     SPT anharmonic value
 Qvib               0.41948D+01          0.80666D+00
 QZvib              0.15046D+03          0.30956D+02
 Energy             0.12714D+03          0.12586D+03         kJ/mol
 Enthalpy           0.13961D+03          0.13834D+03         kJ/mol
 Entropy            0.38553D+03          0.37098D+03         J/(mol K)
 Sp.Heat(V)         0.67380D+02          0.67576D+02         J/(mol K)
 Sp.Heat(P)         0.75695D+02          0.75891D+02         J/(mol K)

 T = 2000.00 K;  P =   1.00 atm
                    Harmonic value     SPT anharmonic value
 Qvib               0.30838D+02          0.57863D+01
 QZvib              0.45198D+03          0.89217D+02
 Energy             0.16151D+03          0.16034D+03         kJ/mol
 Enthalpy           0.17813D+03          0.17697D+03         kJ/mol
 Entropy            0.40768D+03          0.39319D+03         J/(mol K)
 Sp.Heat(V)         0.69875D+02          0.70085D+02         J/(mol K)
 Sp.Heat(P)         0.78189D+02          0.78399D+02         J/(mol K)
 

***************** cut here for Dina input *****************
 InDerAU

              1    1            0.549300
              2    2            0.057751
              3    3            0.046269
              4    4            0.024825
              5    5            0.006370
              6    6            0.000329
         1    1    1           -2.118005
         2    1    1            0.011449
         2    2    1            0.016105
         2    2    2           -0.052371
         3    1    1            0.043254
         3    2    1            0.055836
         3    2    2            0.011257
         3    3    1            0.197806
         3    3    2           -0.011743
         3    3    3           -0.027651
         4    1    1           -0.003588
         4    2    1           -0.018952
         4    2    2           -0.001281
         4    3    1           -0.065630
         4    3    2            0.002056
         4    3    3            0.002350
         4    4    1            0.019940
         4    4    2            0.002420
         4    4    3           -0.004837
         4    4    4           -0.024677
         5    1    1           -0.006231
         5    2    1           -0.014181
         5    2    2           -0.000309
         5    3    1           -0.051271
         5    3    2            0.001450
         5    3    3            0.004138
         5    4    1            0.017073
         5    4    2            0.000856
         5    4    3           -0.001135
         5    4    4            0.002183
         5    5    1            0.022313
         5    5    2            0.001206
         5    5    3           -0.001104
         5    5    4           -0.000227
         5    5    5            0.001841
         6    1    1           -0.004910
         6    2    1            0.005069
         6    2    2           -0.000594
         6    3    1            0.010746
         6    3    2           -0.001276
         6    3    3           -0.000656
         6    4    1            0.004960
         6    4    2           -0.000393
         6    4    3           -0.000178
         6    4    4           -0.000094
         6    5    1            0.047544
         6    5    2           -0.001546
         6    5    3           -0.004097
         6    5    4            0.000280
         6    5    5            0.000805
         6    6    1            0.279588
         6    6    2           -0.003197
         6    6    3           -0.010630
         6    6    4            0.002241
         6    6    5            0.001493
         6    6    6           -0.000294
    1    1    1    1            7.746302
    2    2    1    1           -0.100204
    2    2    2    1            0.003130
    2    2    2    2            0.029791
    3    3    1    1           -1.211230
    3    3    2    1            0.036199
    3    3    2    2            0.020138
    3    3    3    1            0.135549
    3    3    3    2            0.062910
    3    3    3    3            0.219245
    4    4    1    1           -0.103588
    4    4    2    1            0.002242
    4    4    2    2            0.001255
    4    4    3    1            0.006775
    4    4    3    2            0.005282
    4    4    3    3            0.021344
    4    4    4    1           -0.002313
    4    4    4    2           -0.005182
    4    4    4    3           -0.003726
    4    4    4    4            0.030071
    5    5    1    1           -0.113684
    5    5    2    1            0.002071
    5    5    2    2           -0.000337
    5    5    3    1            0.007957
    5    5    3    2            0.005600
    5    5    3    3            0.018449
    5    5    4    1           -0.001486
    5    5    4    2           -0.001312
    5    5    4    3           -0.006287
    5    5    4    4            0.001255
    5    5    5    1           -0.002244
    5    5    5    2           -0.002396
    5    5    5    3           -0.006467
    5    5    5    4            0.002020
    5    5    5    5            0.003734
    6    6    1    1           -1.405769
    6    6    2    1            0.013523
    6    6    2    2            0.006173
    6    6    3    1            0.048580
    6    6    3    2            0.026730
    6    6    3    3            0.096494
    6    6    4    1           -0.007257
    6    6    4    2           -0.008992
    6    6    4    3           -0.031651
    6    6    4    4            0.008165
    6    6    5    1           -0.014621
    6    6    5    2           -0.007154
    6    6    5    3           -0.026774
    6    6    5    4            0.009255
    6    6    5    5            0.021245
    6    6    6    1           -0.037691
    6    6    6    2            0.005969
    6    6    6    3            0.010075
    6    6    6    4            0.008295
    6    6    6    5            0.079139
    6    6    6    6            0.449142
         x    2    1            0.049440
         x    3    1            0.192022
         x    3    2           -0.015605
         x    4    1           -0.081161
         x    4    2            0.021691
         x    4    3            0.036155
         x    5    1           -0.214954
         x    5    2            0.043662
         x    5    3            0.025851
         x    5    4            0.012473
         x    6    1           -0.917503
         x    6    2            0.138235
         x    6    3           -0.048153
         x    6    4            0.121494
         x    6    5            0.160085
         y    2    1           -0.075746
         y    3    1           -0.263240
         y    3    2           -0.016133
         y    4    1            0.068354
         y    4    2            0.020905
         y    4    3           -0.028180
         y    5    1            0.038808
         y    5    2            0.106834
         y    5    3            0.138889
         y    5    4           -0.097097
         y    6    1           -0.139865
         y    6    2            0.368150
         y    6    3            0.739323
         y    6    4           -0.346709
         y    6    5           -0.247945
         z    2    1            0.239207
         z    3    1            0.839008
         z    3    2            0.195711
         z    4    1           -0.224444
         z    4    2            0.408526
         z    4    3            0.102677
         z    5    1           -0.165086
         z    5    2            0.628663
         z    5    3           -0.311962
         z    5    4           -0.518687
         z    6    1            0.225718
         z    6    2           -0.067909
         z    6    3            0.337107
         z    6    4            0.011230
         z    6    5           -0.068781
 
***************** cut here for DiNa input *****************

 ***** Axes restored to original set *****
 -------------------------------------------------------------------
 Center     Atomic                   Forces (Hartrees/Bohr)
 Number     Number              X              Y              Z
 -------------------------------------------------------------------
      1       16           0.000001239   -0.000000961    0.000013111
      2        8           0.000000763   -0.000000499    0.000008246
      3        8           0.000000191   -0.000003269   -0.000012172
      4        1          -0.000002193    0.000004730   -0.000009185
 -------------------------------------------------------------------
 Cartesian Forces:  Max     0.000013111 RMS     0.000006542

 GradGradGradGradGradGradGradGradGradGradGradGradGradGradGradGradGradGrad
 Berny optimization.
 Internal  Forces:  Max     0.000000068 RMS     0.000000030
 Search for a local minimum.
 Step number   1 out of a maximum of    2
 All quantities printed in internal units (Hartrees-Bohrs-Radians)
 Second derivative matrix not updated -- analytic derivatives used.
 The second derivative matrix:
                          R1        R2        R3        A1        A2
           R1           0.27744
           R2           0.02411   0.61074
           R3           0.00876  -0.00235   0.52167
           A1          -0.01328   0.03580  -0.00866   0.33416
           A2           0.04354   0.00370   0.02231  -0.05068   0.13811
           D1           0.00090   0.00101   0.00039  -0.00694  -0.00459
                          D1
           D1           0.00121
 ITU=  0
     Eigenvalues ---    0.00078   0.11565   0.27528   0.35053   0.52423
     Eigenvalues ---    0.61684
 Angle between quadratic step and forces=  23.64 degrees.
 Linear search not attempted -- first point.
 Iteration  1 RMS(Cart)=  0.00003078 RMS(Int)=  0.00000000
 Iteration  2 RMS(Cart)=  0.00000000 RMS(Int)=  0.00000000
 Variable       Old X    -DE/DX   Delta X   Delta X   Delta X     New X
                                 (Linear)    (Quad)   (Total)
    R1        3.06863   0.00000   0.00000   0.00000   0.00000   3.06863
    R2        2.76208   0.00000   0.00000   0.00000   0.00000   2.76208
    R3        1.82477   0.00000   0.00000   0.00000   0.00000   1.82477
    A1        1.90113   0.00000   0.00000   0.00000   0.00000   1.90114
    A2        1.91232   0.00000   0.00000   0.00000   0.00000   1.91233
    D1        0.39535   0.00000   0.00000   0.00009   0.00009   0.39543
         Item               Value     Threshold  Converged?
 Maximum Force            0.000000     0.000002     YES
 RMS     Force            0.000000     0.000001     YES
 Maximum Displacement     0.000042     0.000006     NO 
 RMS     Displacement     0.000031     0.000004     NO 
 Predicted change in Energy=-2.951991D-12
 GradGradGradGradGradGradGradGradGradGradGradGradGradGradGradGradGradGrad

 1\1\ CPUSERV-QCEXNOD01\Freq\UwB97XD\6-311+G(3df)\H1O2S1(2)\ROOT\04-Feb
 -2025\0\\#N Geom=AllCheck Guess=TCheck SCRF=Check GenChk UwB97XD/6-311
 +G(3df) Freq\\Optimizacion del hoso\\0,2\S,-0.1365072505,-0.4701322143
 ,0.0254275164\O,1.3124876156,0.25869262,-0.0527886631\O,-1.1830953617,
 0.5489509855,-0.0244790383\H,1.2291559966,1.1760436088,0.2369741849\\V
 ersion=EM64L-G09RevC.01\State=2-A\HF=-549.2212529\S2=0.755473\S2-1=0.\
 S2A=0.750021\RMSD=2.584e-09\RMSF=6.542e-06\ZeroPoint=0.0170051\Thermal
 =0.0209993\Dipole=0.5093605,0.0368018,0.2099073\DipoleDeriv=1.6889493,
 0.2035813,-0.0126156,0.1726956,0.876248,-0.0448314,-0.0454669,-0.05171
 11,0.2780474,-1.1693661,-0.306727,-0.0235053,-0.6695229,-0.5857071,0.0
 516062,0.0244839,0.0501741,-0.317354,-0.7633693,0.0394745,-0.0032128,0
 .3967377,-0.595474,0.0087696,-0.0024392,0.0162615,-0.2844199,0.2437861
 ,0.0636712,0.0393336,0.1000896,0.3049331,-0.0155444,0.0234222,-0.01472
 46,0.3237264\Polar=34.1792874,-0.8967018,27.686281,0.163617,0.0346038,
 21.7728376\Quadrupole=-2.1093408,2.0047168,0.104624,2.535083,0.4840731
 ,0.5906833\PG=C01 [X(H1O2S1)]\NImag=0\\0.50614973,-0.14900074,0.485825
 71,0.00247435,-0.02152831,0.00389767,-0.17674704,-0.05882091,0.0164017
 6,0.24611713,-0.11836438,-0.12976229,0.00710510,0.03077127,0.55731069,
 0.01055625,0.00047713,-0.00416739,-0.03371720,0.14411151,0.05218421,-0
 .31742541,0.25429613,-0.01188151,-0.03518962,0.02424535,-0.00102122,0.
 34740917,0.27600268,-0.33740723,0.01719021,-0.00181603,0.02999581,-0.0
 0111690,-0.28288121,0.30607726,-0.01209932,0.01947403,-0.00134604,-0.0
 0028317,-0.00306866,0.00092559,0.01216310,-0.01631779,0.00091476,-0.01
 197728,-0.04647449,-0.00699460,-0.03418046,0.06334775,0.02418217,0.005
 20586,0.00869456,0.00021939,0.04095188,-0.00863756,-0.01865619,-0.0027
 6700,0.02986566,-0.45754420,-0.14347175,0.00433972,0.00133416,-0.00008
 757,-0.02556782,0.47486623,-0.00093128,0.00157715,0.00161576,0.0175986
 1,-0.14814795,-0.04894241,0.00073963,0.00024448,-0.00049430,-0.0174069
 6,0.14632632,0.04782095\\-0.00000124,0.00000096,-0.00001311,-0.0000007
 6,0.00000050,-0.00000825,-0.00000019,0.00000327,0.00001217,0.00000219,
 -0.00000473,0.00000918\\\@


 ALL PAPERS THAT YOU SAVE WILL NEVER BE NEEDED UNTIL
 SUCH TIME AS THEY ARE DISPOSED OF, WHEN THEY BECOME
 ESSENTIAL.

           -- JOHN CORCORAN IN
              PAUL DICKSON'S "THE OFFICIAL RULES"
 Job cpu time:  0 days  1 hours 30 minutes 55.1 seconds.
 File lengths (MBytes):  RWF=     60 Int=      0 D2E=      0 Chk=     40 Scr=      1
 Normal termination of Gaussian 09 at Tue Feb  4 16:51:43 2025.
