 Entering Gaussian System, Link 0=g09
 Initial command:
 /soft/g09.c01/g09/l1.exe /scr/macias/389602.qcexmaster_vib4_0.20/Gau-25778.inp -scrdir=/scr/macias/389602.qcexmaster_vib4_0.20/
 Entering Link 1 = /soft/g09.c01/g09/l1.exe PID=     25786.
  
 Copyright (c) 1988,1990,1992,1993,1995,1998,2003,2009,2011,
            Gaussian, Inc.  All Rights Reserved.
  
 This is part of the Gaussian(R) 09 program.  It is based on
 the Gaussian(R) 03 system (copyright 2003, Gaussian, Inc.),
 the Gaussian(R) 98 system (copyright 1998, Gaussian, Inc.),
 the Gaussian(R) 94 system (copyright 1995, Gaussian, Inc.),
 the Gaussian 92(TM) system (copyright 1992, Gaussian, Inc.),
 the Gaussian 90(TM) system (copyright 1990, Gaussian, Inc.),
 the Gaussian 88(TM) system (copyright 1988, Gaussian, Inc.),
 the Gaussian 86(TM) system (copyright 1986, Carnegie Mellon
 University), and the Gaussian 82(TM) system (copyright 1983,
 Carnegie Mellon University). Gaussian is a federally registered
 trademark of Gaussian, Inc.
  
 This software contains proprietary and confidential information,
 including trade secrets, belonging to Gaussian, Inc.
  
 This software is provided under written license and may be
 used, copied, transmitted, or stored only in accord with that
 written license.
  
 The following legend is applicable only to US Government
 contracts under FAR:
  
                    RESTRICTED RIGHTS LEGEND
  
 Use, reproduction and disclosure by the US Government is
 subject to restrictions as set forth in subparagraphs (a)
 and (c) of the Commercial Computer Software - Restricted
 Rights clause in FAR 52.227-19.
  
 Gaussian, Inc.
 340 Quinnipiac St., Bldg. 40, Wallingford CT 06492
  
  
 ---------------------------------------------------------------
 Warning -- This program may not be used in any manner that
 competes with the business of Gaussian, Inc. or will provide
 assistance to any competitor of Gaussian, Inc.  The licensee
 of this program is prohibited from giving any competitor of
 Gaussian, Inc. access to this program.  By using this program,
 the user acknowledges that Gaussian, Inc. is engaged in the
 business of creating and licensing software in the field of
 computational chemistry and represents and warrants to the
 licensee that it is not a competitor of Gaussian, Inc. and that
 it will not use this program in any manner prohibited above.
 ---------------------------------------------------------------
  

 Cite this work as:
 Gaussian 09, Revision C.01,
 M. J. Frisch, G. W. Trucks, H. B. Schlegel, G. E. Scuseria, 
 M. A. Robb, J. R. Cheeseman, G. Scalmani, V. Barone, B. Mennucci, 
 G. A. Petersson, H. Nakatsuji, M. Caricato, X. Li, H. P. Hratchian, 
 A. F. Izmaylov, J. Bloino, G. Zheng, J. L. Sonnenberg, M. Hada, 
 M. Ehara, K. Toyota, R. Fukuda, J. Hasegawa, M. Ishida, T. Nakajima, 
 Y. Honda, O. Kitao, H. Nakai, T. Vreven, J. A. Montgomery, Jr., 
 J. E. Peralta, F. Ogliaro, M. Bearpark, J. J. Heyd, E. Brothers, 
 K. N. Kudin, V. N. Staroverov, T. Keith, R. Kobayashi, J. Normand, 
 K. Raghavachari, A. Rendell, J. C. Burant, S. S. Iyengar, J. Tomasi, 
 M. Cossi, N. Rega, J. M. Millam, M. Klene, J. E. Knox, J. B. Cross, 
 V. Bakken, C. Adamo, J. Jaramillo, R. Gomperts, R. E. Stratmann, 
 O. Yazyev, A. J. Austin, R. Cammi, C. Pomelli, J. W. Ochterski, 
 R. L. Martin, K. Morokuma, V. G. Zakrzewski, G. A. Voth, 
 P. Salvador, J. J. Dannenberg, S. Dapprich, A. D. Daniels, 
 O. Farkas, J. B. Foresman, J. V. Ortiz, J. Cioslowski, 
 and D. J. Fox, Gaussian, Inc., Wallingford CT, 2010.
 
  
 -----  Compilado por  -----------------------------------------
  
  Servicio de Calculo | Servicio de Informatica U. de Valencia
     calculo@uv.es    |  E-46100 Burjassot (Valencia) SPAIN
  
 ---------------------------------------------------------------
  
 ******************************************
 Gaussian 09:  EM64L-G09RevC.01 23-Sep-2011
                20-Aug-2025 
 ******************************************
 %chk=opt_freq.chk
 %nproc=6
 Will use up to    6 processors via shared memory.
 %mem=20GB
 Default route:  CacheSize=131072
 -----------------------
 #sp wB97XD/6-311+G(3df)
 -----------------------
 1/4=131072,38=1/1;
 2/4=131072,12=2,17=6,18=5,40=1/2;
 3/4=131072,5=4,6=6,7=16,11=2,16=1,25=1,30=1,74=-58/1,2,3;
 4/4=131072/1;
 5/4=131072,5=2,38=5/2;
 6/4=131072,7=2,8=2,9=2,10=2,28=1/1;
 99/4=131072,5=1,9=1/99;
 ---------------------
 Optimizacion del hoso
 ---------------------
 Charge =  0 Multiplicity = 2
 Symbolic Z-Matrix:
 S                    -0.13084  -0.47001   0.01831 
 O                     1.32013   0.24447  -0.04904 
 O                    -1.19964   0.55144  -0.02004 
 H                     1.03352   1.13085   0.29368 
 
                          Input orientation:                          
 ---------------------------------------------------------------------
 Center     Atomic      Atomic             Coordinates (Angstroms)
 Number     Number       Type             X           Y           Z
 ---------------------------------------------------------------------
      1         16           0       -0.130843   -0.470008    0.018308
      2          8           0        1.320132    0.244471   -0.049040
      3          8           0       -1.199636    0.551438   -0.020037
      4          1           0        1.033521    1.130845    0.293681
 ---------------------------------------------------------------------
                    Distance matrix (angstroms):
                    1          2          3          4
     1  S    0.000000
     2  O    1.618748   0.000000
     3  O    1.478898   2.538563   0.000000
     4  H    1.998576   0.992604   2.328330   0.000000
 Stoichiometry    HO2S(2)
 Framework group  C1[X(HO2S)]
 Deg. of freedom     6
 Full point group                 C1      NOp   1
 Largest Abelian subgroup         C1      NOp   1
 Largest concise Abelian subgroup C1      NOp   1
                         Standard orientation:                         
 ---------------------------------------------------------------------
 Center     Atomic      Atomic             Coordinates (Angstroms)
 Number     Number       Type             X           Y           Z
 ---------------------------------------------------------------------
      1         16           0       -0.114212   -0.472858    0.017541
      2          8           0        1.315428    0.283619   -0.047398
      3          8           0       -1.212289    0.516894   -0.024389
      4          1           0        1.002277    1.161622    0.293644
 ---------------------------------------------------------------------
 Rotational constants (GHZ):     35.7097779      9.5778129      7.5817618
 Standard basis: 6-311+G(3df) (5D, 7F)
 There are   128 symmetry adapted basis functions of A   symmetry.
 Integral buffers will be    131072 words long.
 Raffenetti 2 integral format.
 Two-electron integral symmetry is turned on.
   128 basis functions,   193 primitive gaussians,   146 cartesian basis functions
    17 alpha electrons       16 beta electrons
       nuclear repulsion energy       111.3054071270 Hartrees.
 NAtoms=    4 NActive=    4 NUniq=    4 SFac= 1.00D+00 NAtFMM=   60 NAOKFM=F Big=F
 Nuclear repulsion after empirical dispersion term =      111.3051963364 Hartrees.
 One-electron integrals computed using PRISM.
 NBasis=   128 RedAO= T  NBF=   128
 NBsUse=   128 1.00D-06 NBFU=   128
 Harris functional with IExCor= 4639 diagonalized for initial guess.
 ExpMin= 4.05D-02 ExpMax= 9.34D+04 ExpMxC= 3.17D+03 IAcc=2 IRadAn=         4 AccDes= 0.00D+00
 HarFok:  IExCor= 4639 AccDes= 0.00D+00 IRadAn=         4 IDoV= 1
 ScaDFX=  1.000000  1.000000  1.000000  1.000000
 FoFCou: FMM=F IPFlag=           0 FMFlag=      100000 FMFlg1=           0
         NFxFlg=           0 DoJE=T BraDBF=F KetDBF=T FulRan=T
         Omega=  0.000000  0.000000  1.000000  0.000000  0.000000 ICntrl=     500 IOpCl=  0
         NMat0=    1 NMatS0=    1 NMatT0=    0 NMatD0=    1 NMtDS0=    0 NMtDT0=    0
         I1Cent=           4 NGrid=           0.
 Petite list used in FoFCou.
 Initial guess orbital symmetries:
 Alpha Orbitals:
       Occupied  (A) (A) (A) (A) (A) (A) (A) (A) (A) (A) (A) (A)
                 (A) (A) (A) (A) (A)
       Virtual   (A) (A) (A) (A) (A) (A) (A) (A) (A) (A) (A) (A)
                 (A) (A) (A) (A) (A) (A) (A) (A) (A) (A) (A) (A)
                 (A) (A) (A) (A) (A) (A) (A) (A) (A) (A) (A) (A)
                 (A) (A) (A) (A) (A) (A) (A) (A) (A) (A) (A) (A)
                 (A) (A) (A) (A) (A) (A) (A) (A) (A) (A) (A) (A)
                 (A) (A) (A) (A) (A) (A) (A) (A) (A) (A) (A) (A)
                 (A) (A) (A) (A) (A) (A) (A) (A) (A) (A) (A) (A)
                 (A) (A) (A) (A) (A) (A) (A) (A) (A) (A) (A) (A)
                 (A) (A) (A) (A) (A) (A) (A) (A) (A) (A) (A) (A)
                 (A) (A) (A)
 Beta  Orbitals:
       Occupied  (A) (A) (A) (A) (A) (A) (A) (A) (A) (A) (A) (A)
                 (A) (A) (A) (A)
       Virtual   (A) (A) (A) (A) (A) (A) (A) (A) (A) (A) (A) (A)
                 (A) (A) (A) (A) (A) (A) (A) (A) (A) (A) (A) (A)
                 (A) (A) (A) (A) (A) (A) (A) (A) (A) (A) (A) (A)
                 (A) (A) (A) (A) (A) (A) (A) (A) (A) (A) (A) (A)
                 (A) (A) (A) (A) (A) (A) (A) (A) (A) (A) (A) (A)
                 (A) (A) (A) (A) (A) (A) (A) (A) (A) (A) (A) (A)
                 (A) (A) (A) (A) (A) (A) (A) (A) (A) (A) (A) (A)
                 (A) (A) (A) (A) (A) (A) (A) (A) (A) (A) (A) (A)
                 (A) (A) (A) (A) (A) (A) (A) (A) (A) (A) (A) (A)
                 (A) (A) (A) (A)
 The electronic state of the initial guess is 2-A.
 Initial guess <Sx>= 0.0000 <Sy>= 0.0000 <Sz>= 0.5000 <S**2>= 0.7500 S= 0.5000
 Requested convergence on RMS density matrix=1.00D-08 within 128 cycles.
 Requested convergence on MAX density matrix=1.00D-06.
 Requested convergence on             energy=1.00D-06.
 No special actions if energy rises.
 FoFJK:  IHMeth= 1 ICntrl=     0 DoSepK=T KAlg= 1 I1Cent= 0 FoldK=F
 FoFJK:  IHMeth= 1 ICntrl=     0 DoSepK=T KAlg= 1 I1Cent= 0 FoldK=F
 FoFJK:  IHMeth= 1 ICntrl=     0 DoSepK=T KAlg= 1 I1Cent= 0 FoldK=F
 FoFJK:  IHMeth= 1 ICntrl=     0 DoSepK=T KAlg= 1 I1Cent= 0 FoldK=F
 FoFJK:  IHMeth= 1 ICntrl=     0 DoSepK=T KAlg= 1 I1Cent= 0 FoldK=F
 FoFJK:  IHMeth= 1 ICntrl=     0 DoSepK=T KAlg= 1 I1Cent= 0 FoldK=F
 FoFJK:  IHMeth= 1 ICntrl=     0 DoSepK=T KAlg= 1 I1Cent= 0 FoldK=F
 FoFJK:  IHMeth= 1 ICntrl=     0 DoSepK=T KAlg= 1 I1Cent= 0 FoldK=F
 FoFJK:  IHMeth= 1 ICntrl=     0 DoSepK=T KAlg= 1 I1Cent= 0 FoldK=F
 FoFJK:  IHMeth= 1 ICntrl=     0 DoSepK=T KAlg= 1 I1Cent= 0 FoldK=F
 FoFJK:  IHMeth= 1 ICntrl=     0 DoSepK=T KAlg= 1 I1Cent= 0 FoldK=F
 FoFJK:  IHMeth= 1 ICntrl=     0 DoSepK=T KAlg= 1 I1Cent= 0 FoldK=F
 FoFJK:  IHMeth= 1 ICntrl=     0 DoSepK=T KAlg= 1 I1Cent= 0 FoldK=F
 FoFJK:  IHMeth= 1 ICntrl=     0 DoSepK=T KAlg= 1 I1Cent= 0 FoldK=F
 FoFJK:  IHMeth= 1 ICntrl=     0 DoSepK=T KAlg= 1 I1Cent= 0 FoldK=F
 SCF Done:  E(UwB97XD) =  -549.216491971     A.U. after   15 cycles
             Convg  =    0.6887D-08             -V/T =  2.0017
 <Sx>= 0.0000 <Sy>= 0.0000 <Sz>= 0.5000 <S**2>= 0.7556 S= 0.5028
 <L.S>= 0.000000000000E+00
 Annihilation of the first spin contaminant:
 S**2 before annihilation     0.7556,   after     0.7500

 **********************************************************************

            Population analysis using the SCF density.

 **********************************************************************

 Orbital symmetries:
 Alpha Orbitals:
       Occupied  (A) (A) (A) (A) (A) (A) (A) (A) (A) (A) (A) (A)
                 (A) (A) (A) (A) (A)
       Virtual   (A) (A) (A) (A) (A) (A) (A) (A) (A) (A) (A) (A)
                 (A) (A) (A) (A) (A) (A) (A) (A) (A) (A) (A) (A)
                 (A) (A) (A) (A) (A) (A) (A) (A) (A) (A) (A) (A)
                 (A) (A) (A) (A) (A) (A) (A) (A) (A) (A) (A) (A)
                 (A) (A) (A) (A) (A) (A) (A) (A) (A) (A) (A) (A)
                 (A) (A) (A) (A) (A) (A) (A) (A) (A) (A) (A) (A)
                 (A) (A) (A) (A) (A) (A) (A) (A) (A) (A) (A) (A)
                 (A) (A) (A) (A) (A) (A) (A) (A) (A) (A) (A) (A)
                 (A) (A) (A) (A) (A) (A) (A) (A) (A) (A) (A) (A)
                 (A) (A) (A)
 Beta  Orbitals:
       Occupied  (A) (A) (A) (A) (A) (A) (A) (A) (A) (A) (A) (A)
                 (A) (A) (A) (A)
       Virtual   (A) (A) (A) (A) (A) (A) (A) (A) (A) (A) (A) (A)
                 (A) (A) (A) (A) (A) (A) (A) (A) (A) (A) (A) (A)
                 (A) (A) (A) (A) (A) (A) (A) (A) (A) (A) (A) (A)
                 (A) (A) (A) (A) (A) (A) (A) (A) (A) (A) (A) (A)
                 (A) (A) (A) (A) (A) (A) (A) (A) (A) (A) (A) (A)
                 (A) (A) (A) (A) (A) (A) (A) (A) (A) (A) (A) (A)
                 (A) (A) (A) (A) (A) (A) (A) (A) (A) (A) (A) (A)
                 (A) (A) (A) (A) (A) (A) (A) (A) (A) (A) (A) (A)
                 (A) (A) (A) (A) (A) (A) (A) (A) (A) (A) (A) (A)
                 (A) (A) (A) (A)
 The electronic state is 2-A.
 Alpha  occ. eigenvalues --  -89.15043 -19.32865 -19.28729  -8.17810  -6.12717
 Alpha  occ. eigenvalues --   -6.12508  -6.12160  -1.23047  -1.14868  -0.79111
 Alpha  occ. eigenvalues --   -0.63556  -0.58189  -0.56826  -0.50799  -0.47423
 Alpha  occ. eigenvalues --   -0.42672  -0.31264
 Alpha virt. eigenvalues --    0.04995   0.06856   0.07397   0.09269   0.11153
 Alpha virt. eigenvalues --    0.13394   0.18549   0.22090   0.24166   0.24681
 Alpha virt. eigenvalues --    0.26074   0.27583   0.30654   0.32294   0.32718
 Alpha virt. eigenvalues --    0.35785   0.36424   0.37531   0.38666   0.40096
 Alpha virt. eigenvalues --    0.40855   0.49926   0.55622   0.67557   0.78135
 Alpha virt. eigenvalues --    0.81813   0.86718   0.88067   0.93673   0.95323
 Alpha virt. eigenvalues --    0.97089   0.97422   1.00363   1.03088   1.05976
 Alpha virt. eigenvalues --    1.08323   1.09745   1.10443   1.13698   1.16897
 Alpha virt. eigenvalues --    1.21886   1.28771   1.32547   1.35363   1.38626
 Alpha virt. eigenvalues --    1.44936   1.66827   1.68192   1.73644   1.78680
 Alpha virt. eigenvalues --    1.91090   2.00934   2.05929   2.08481   2.12487
 Alpha virt. eigenvalues --    2.20700   2.31043   2.35312   2.51410   3.36671
 Alpha virt. eigenvalues --    3.42063   3.45055   3.47482   3.49848   3.54917
 Alpha virt. eigenvalues --    3.55424   3.61793   3.68968   3.69773   4.53402
 Alpha virt. eigenvalues --    4.57706   4.60406   4.71392   4.89683   4.98404
 Alpha virt. eigenvalues --    5.02836   5.03293   5.04123   5.07433   5.08714
 Alpha virt. eigenvalues --    5.09550   5.10787   5.15465   5.22030   5.24454
 Alpha virt. eigenvalues --    5.39249   5.44114   5.53296   5.56673   5.63577
 Alpha virt. eigenvalues --    5.70527   5.83273   5.97089   6.57155   8.74416
 Alpha virt. eigenvalues --   14.31473  14.35485  14.36693  14.38693  14.41058
 Alpha virt. eigenvalues --   14.42560  14.45209  14.48336  14.61968  14.70121
 Alpha virt. eigenvalues --   17.35909  17.60918  17.86672  50.02117  50.10241
 Alpha virt. eigenvalues --  189.77661
  Beta  occ. eigenvalues --  -89.14654 -19.32610 -19.27843  -8.17463  -6.12486
  Beta  occ. eigenvalues --   -6.11951  -6.11258  -1.22003  -1.13270  -0.76648
  Beta  occ. eigenvalues --   -0.62486  -0.57402  -0.53519  -0.48685  -0.43556
  Beta  occ. eigenvalues --   -0.41411
  Beta virt. eigenvalues --   -0.04201   0.05420   0.07223   0.07878   0.09853
  Beta virt. eigenvalues --    0.12238   0.13928   0.18952   0.22239   0.24403
  Beta virt. eigenvalues --    0.24952   0.26408   0.28071   0.30899   0.32539
  Beta virt. eigenvalues --    0.33779   0.36056   0.37013   0.38268   0.39904
  Beta virt. eigenvalues --    0.40532   0.41699   0.50533   0.55848   0.68072
  Beta virt. eigenvalues --    0.78719   0.82041   0.87636   0.88440   0.94423
  Beta virt. eigenvalues --    0.95653   0.97898   0.98511   1.01411   1.03623
  Beta virt. eigenvalues --    1.06661   1.09509   1.10158   1.12365   1.14045
  Beta virt. eigenvalues --    1.17768   1.23025   1.29509   1.33198   1.36262
  Beta virt. eigenvalues --    1.39416   1.45272   1.69964   1.70184   1.75253
  Beta virt. eigenvalues --    1.80265   1.91904   2.02144   2.06644   2.10805
  Beta virt. eigenvalues --    2.13106   2.21152   2.31580   2.36272   2.51722
  Beta virt. eigenvalues --    3.37572   3.43465   3.47570   3.48367   3.51192
  Beta virt. eigenvalues --    3.56116   3.57467   3.62455   3.69767   3.70573
  Beta virt. eigenvalues --    4.53946   4.57905   4.61233   4.71860   4.90272
  Beta virt. eigenvalues --    4.98992   5.03525   5.04186   5.04802   5.08732
  Beta virt. eigenvalues --    5.11551   5.12198   5.12943   5.16162   5.23013
  Beta virt. eigenvalues --    5.25735   5.39940   5.44629   5.54050   5.57446
  Beta virt. eigenvalues --    5.64471   5.71159   5.84923   5.97624   6.57567
  Beta virt. eigenvalues --    8.74777  14.32754  14.37731  14.39575  14.40990
  Beta virt. eigenvalues --   14.43114  14.43773  14.48526  14.49593  14.62608
  Beta virt. eigenvalues --   14.72121  17.37311  17.61205  17.86993  50.02376
  Beta virt. eigenvalues --   50.11014 189.77968
          Condensed to atoms (all electrons):
              1          2          3          4
     1  S   15.380815  -0.034319   0.142069   0.010692
     2  O   -0.034319   8.429612   0.004765   0.207002
     3  O    0.142069   0.004765   8.243283   0.001391
     4  H    0.010692   0.207002   0.001391   0.283090
 Mulliken atomic charges:
              1
     1  S    0.500743
     2  O   -0.607060
     3  O   -0.391508
     4  H    0.497825
 Sum of Mulliken atomic charges =   0.00000
 Mulliken charges with hydrogens summed into heavy atoms:
              1
     1  S    0.500743
     2  O   -0.109236
     3  O   -0.391508
 Sum of Mulliken charges with hydrogens summed into heavy atoms =   0.00000
          Atomic-Atomic Spin Densities.
              1          2          3          4
     1  S    0.942138  -0.108229  -0.192962  -0.001765
     2  O   -0.108229   0.153916   0.018461  -0.004246
     3  O   -0.192962   0.018461   0.474083  -0.000015
     4  H   -0.001765  -0.004246  -0.000015   0.007374
 Mulliken atomic spin densities:
              1
     1  S    0.639183
     2  O    0.059901
     3  O    0.299567
     4  H    0.001349
 Sum of Mulliken atomic spin densities =   1.00000
 Electronic spatial extent (au):  <R**2>=            177.3501
 Charge=              0.0000 electrons
 Dipole moment (field-independent basis, Debye):
    X=              1.1755    Y=              0.0147    Z=              0.5586  Tot=              1.3015
 Quadrupole moment (field-independent basis, Debye-Ang):
   XX=            -27.3303   YY=            -21.2665   ZZ=            -23.5864
   XY=              2.5743   XZ=              0.5547   YZ=              0.9242
 Traceless Quadrupole moment (field-independent basis, Debye-Ang):
   XX=             -3.2692   YY=              2.7946   ZZ=              0.4747
   XY=              2.5743   XZ=              0.5547   YZ=              0.9242
 Octapole moment (field-independent basis, Debye-Ang**2):
  XXX=              0.7722  YYY=              4.9446  ZZZ=             -0.0598  XYY=              3.6698
  XXY=             -0.4391  XXZ=              0.4958  XZZ=              0.2108  YZZ=              1.1861
  YYZ=              1.1000  XYZ=              0.9488
 Hexadecapole moment (field-independent basis, Debye-Ang**3):
 XXXX=           -142.3883 YYYY=            -51.6702 ZZZZ=            -25.0297 XXXY=              2.9509
 XXXZ=              0.4716 YYYX=              4.8468 YYYZ=              1.4953 ZZZX=              0.2693
 ZZZY=              0.6254 XXYY=            -28.4172 XXZZ=            -26.8960 YYZZ=            -13.7187
 XXYZ=              1.1094 YYXZ=              1.0701 ZZXY=              0.3722
 N-N= 1.113051963364D+02 E-N=-2.281320670846D+03  KE= 8.209578342919D+02
                          Isotropic Fermi Contact Couplings
        Atom                 a.u.       MegaHertz       Gauss      10(-4) cm-1
     1  S(33)              0.10746      36.90833      13.16981      12.31129
     2  O(17)              0.02045     -12.39881      -4.42420      -4.13580
     3  O(17)              0.05166     -31.31757     -11.17489     -10.44642
     4  H(1)               0.00078       3.47627       1.24042       1.15956
 --------------------------------------------------------
       Center         ----  Spin Dipole Couplings  ----
                      3XX-RR        3YY-RR        3ZZ-RR
 --------------------------------------------------------
     1   Atom       -1.518315     -1.623263      3.141578
     2   Atom       -0.249044     -0.214096      0.463139
     3   Atom       -0.771119     -0.771640      1.542760
     4   Atom       -0.004917      0.018478     -0.013561
 --------------------------------------------------------
                        XY            XZ            YZ
 --------------------------------------------------------
     1   Atom        0.002220     -0.005657      0.264254
     2   Atom        0.003540      0.025101     -0.115482
     3   Atom        0.006935      0.105411      0.066126
     4   Atom       -0.000377      0.000224      0.005581
 --------------------------------------------------------


 ---------------------------------------------------------------------------------
              Anisotropic Spin Dipole Couplings in Principal Axis System
 ---------------------------------------------------------------------------------

       Atom             a.u.   MegaHertz   Gauss  10(-4) cm-1        Axes

              Baa    -1.6379   -67.153   -23.962   -22.400 -0.0211  0.9983 -0.0552
     1 S(33)  Bbb    -1.5183   -62.248   -22.211   -20.764  0.9998  0.0212  0.0000
              Bcc     3.1562   129.401    46.174    43.164 -0.0012  0.0552  0.9985
 
              Baa    -0.2528    18.292     6.527     6.102  0.9316 -0.3523 -0.0895
     2 O(17)  Bbb    -0.2303    16.664     5.946     5.559  0.3619  0.9216  0.1404
              Bcc     0.4831   -34.956   -12.473   -11.660  0.0330 -0.1632  0.9860
 
              Baa    -0.7788    56.355    20.109    18.798  0.8029 -0.5958 -0.0195
     3 O(17)  Bbb    -0.7706    55.762    19.897    18.600  0.5944  0.8026 -0.0500
              Bcc     1.5494  -112.117   -40.006   -37.398  0.0454  0.0286  0.9986
 
              Baa    -0.0145    -7.744    -2.763    -2.583 -0.0296 -0.1671  0.9855
     4 H(1)   Bbb    -0.0049    -2.621    -0.935    -0.874  0.9995  0.0086  0.0315
              Bcc     0.0194    10.365     3.699     3.457 -0.0137  0.9859  0.1667
 

 ---------------------------------------------------------------------------------

 1\1\ CPUSERV-QCEXNOD15\SP\UwB97XD\6-311+G(3df)\H1O2S1(2)\VPEREZ\20-Aug
 -2025\0\\#sp wB97XD/6-311+G(3df)\\Optimizacion del hoso\\0,2\S,0,-0.13
 0843,-0.470008,0.018308\O,0,1.320132,0.244471,-0.04904\O,0,-1.199636,0
 .551438,-0.020037\H,0,1.033521,1.130845,0.293681\\Version=EM64L-G09Rev
 C.01\State=2-A\HF=-549.216492\S2=0.755595\S2-1=0.\S2A=0.750022\RMSD=6.
 887e-09\Dipole=0.4629272,-0.0079862,0.21872\Quadrupole=-2.3130433,1.96
 05229,0.3525204,2.0432331,0.4406627,0.6720851\PG=C01 [X(H1O2S1)]\\@


 PATIENCE IS THE ABILITY TO IDLE YOUR MOTOR WHEN
 YOU FEEL LIKE STRIPPING YOUR GEARS.
 Job cpu time:  0 days  0 hours  5 minutes 37.3 seconds.
 File lengths (MBytes):  RWF=     21 Int=      0 D2E=      0 Chk=      2 Scr=      1
 Normal termination of Gaussian 09 at Wed Aug 20 22:59:59 2025.
