 Entering Gaussian System, Link 0=g09
 Initial command:
 /soft/g09.c01/g09/l1.exe /scr/macias/389579.qcexmaster_vib2_-0.05/Gau-830.inp -scrdir=/scr/macias/389579.qcexmaster_vib2_-0.05/
 Entering Link 1 = /soft/g09.c01/g09/l1.exe PID=       838.
  
 Copyright (c) 1988,1990,1992,1993,1995,1998,2003,2009,2011,
            Gaussian, Inc.  All Rights Reserved.
  
 This is part of the Gaussian(R) 09 program.  It is based on
 the Gaussian(R) 03 system (copyright 2003, Gaussian, Inc.),
 the Gaussian(R) 98 system (copyright 1998, Gaussian, Inc.),
 the Gaussian(R) 94 system (copyright 1995, Gaussian, Inc.),
 the Gaussian 92(TM) system (copyright 1992, Gaussian, Inc.),
 the Gaussian 90(TM) system (copyright 1990, Gaussian, Inc.),
 the Gaussian 88(TM) system (copyright 1988, Gaussian, Inc.),
 the Gaussian 86(TM) system (copyright 1986, Carnegie Mellon
 University), and the Gaussian 82(TM) system (copyright 1983,
 Carnegie Mellon University). Gaussian is a federally registered
 trademark of Gaussian, Inc.
  
 This software contains proprietary and confidential information,
 including trade secrets, belonging to Gaussian, Inc.
  
 This software is provided under written license and may be
 used, copied, transmitted, or stored only in accord with that
 written license.
  
 The following legend is applicable only to US Government
 contracts under FAR:
  
                    RESTRICTED RIGHTS LEGEND
  
 Use, reproduction and disclosure by the US Government is
 subject to restrictions as set forth in subparagraphs (a)
 and (c) of the Commercial Computer Software - Restricted
 Rights clause in FAR 52.227-19.
  
 Gaussian, Inc.
 340 Quinnipiac St., Bldg. 40, Wallingford CT 06492
  
  
 ---------------------------------------------------------------
 Warning -- This program may not be used in any manner that
 competes with the business of Gaussian, Inc. or will provide
 assistance to any competitor of Gaussian, Inc.  The licensee
 of this program is prohibited from giving any competitor of
 Gaussian, Inc. access to this program.  By using this program,
 the user acknowledges that Gaussian, Inc. is engaged in the
 business of creating and licensing software in the field of
 computational chemistry and represents and warrants to the
 licensee that it is not a competitor of Gaussian, Inc. and that
 it will not use this program in any manner prohibited above.
 ---------------------------------------------------------------
  

 Cite this work as:
 Gaussian 09, Revision C.01,
 M. J. Frisch, G. W. Trucks, H. B. Schlegel, G. E. Scuseria, 
 M. A. Robb, J. R. Cheeseman, G. Scalmani, V. Barone, B. Mennucci, 
 G. A. Petersson, H. Nakatsuji, M. Caricato, X. Li, H. P. Hratchian, 
 A. F. Izmaylov, J. Bloino, G. Zheng, J. L. Sonnenberg, M. Hada, 
 M. Ehara, K. Toyota, R. Fukuda, J. Hasegawa, M. Ishida, T. Nakajima, 
 Y. Honda, O. Kitao, H. Nakai, T. Vreven, J. A. Montgomery, Jr., 
 J. E. Peralta, F. Ogliaro, M. Bearpark, J. J. Heyd, E. Brothers, 
 K. N. Kudin, V. N. Staroverov, T. Keith, R. Kobayashi, J. Normand, 
 K. Raghavachari, A. Rendell, J. C. Burant, S. S. Iyengar, J. Tomasi, 
 M. Cossi, N. Rega, J. M. Millam, M. Klene, J. E. Knox, J. B. Cross, 
 V. Bakken, C. Adamo, J. Jaramillo, R. Gomperts, R. E. Stratmann, 
 O. Yazyev, A. J. Austin, R. Cammi, C. Pomelli, J. W. Ochterski, 
 R. L. Martin, K. Morokuma, V. G. Zakrzewski, G. A. Voth, 
 P. Salvador, J. J. Dannenberg, S. Dapprich, A. D. Daniels, 
 O. Farkas, J. B. Foresman, J. V. Ortiz, J. Cioslowski, 
 and D. J. Fox, Gaussian, Inc., Wallingford CT, 2010.
 
  
 -----  Compilado por  -----------------------------------------
  
  Servicio de Calculo | Servicio de Informatica U. de Valencia
     calculo@uv.es    |  E-46100 Burjassot (Valencia) SPAIN
  
 ---------------------------------------------------------------
  
 ******************************************
 Gaussian 09:  EM64L-G09RevC.01 23-Sep-2011
                21-Aug-2025 
 ******************************************
 %chk=opt_freq.chk
 %nproc=6
 Will use up to    6 processors via shared memory.
 %mem=20GB
 Default route:  CacheSize=131072
 -----------------------
 #sp wB97XD/6-311+G(3df)
 -----------------------
 1/4=131072,38=1/1;
 2/4=131072,12=2,17=6,18=5,40=1/2;
 3/4=131072,5=4,6=6,7=16,11=2,16=1,25=1,30=1,74=-58/1,2,3;
 4/4=131072/1;
 5/4=131072,5=2,38=5/2;
 6/4=131072,7=2,8=2,9=2,10=2,28=1/1;
 99/4=131072,5=1,9=1/99;
 ---------------------
 Optimizacion del hoso
 ---------------------
 Charge =  0 Multiplicity = 2
 Symbolic Z-Matrix:
 S                    -0.13934  -0.48301   0.01781 
 O                     1.29613   0.26597  -0.04754 
 O                    -1.16864   0.55444  -0.02154 
 H                     1.19052   1.16785   0.28268 
 
                          Input orientation:                          
 ---------------------------------------------------------------------
 Center     Atomic      Atomic             Coordinates (Angstroms)
 Number     Number       Type             X           Y           Z
 ---------------------------------------------------------------------
      1         16           0       -0.139343   -0.483008    0.017808
      2          8           0        1.296132    0.265971   -0.047540
      3          8           0       -1.168636    0.554438   -0.021537
      4          1           0        1.190521    1.167845    0.282681
 ---------------------------------------------------------------------
                    Distance matrix (angstroms):
                    1          2          3          4
     1  S    0.000000
     2  O    1.620441   0.000000
     3  O    1.461946   2.481727   0.000000
     4  H    2.136355   0.966218   2.456509   0.000000
 Stoichiometry    HO2S(2)
 Framework group  C1[X(HO2S)]
 Deg. of freedom     6
 Full point group                 C1      NOp   1
 Largest Abelian subgroup         C1      NOp   1
 Largest concise Abelian subgroup C1      NOp   1
                         Standard orientation:                         
 ---------------------------------------------------------------------
 Center     Atomic      Atomic             Coordinates (Angstroms)
 Number     Number       Type             X           Y           Z
 ---------------------------------------------------------------------
      1         16           0       -0.139881   -0.482785    0.017129
      2          8           0        1.297310    0.262905   -0.048119
      3          8           0       -1.166779    0.557060   -0.021465
      4          1           0        1.193852    1.164848    0.282595
 ---------------------------------------------------------------------
 Rotational constants (GHZ):     33.8165993      9.9259612      7.7023297
 Standard basis: 6-311+G(3df) (5D, 7F)
 There are   128 symmetry adapted basis functions of A   symmetry.
 Integral buffers will be    131072 words long.
 Raffenetti 2 integral format.
 Two-electron integral symmetry is turned on.
   128 basis functions,   193 primitive gaussians,   146 cartesian basis functions
    17 alpha electrons       16 beta electrons
       nuclear repulsion energy       111.8466973125 Hartrees.
 NAtoms=    4 NActive=    4 NUniq=    4 SFac= 1.00D+00 NAtFMM=   60 NAOKFM=F Big=F
 Nuclear repulsion after empirical dispersion term =      111.8464600123 Hartrees.
 One-electron integrals computed using PRISM.
 NBasis=   128 RedAO= T  NBF=   128
 NBsUse=   128 1.00D-06 NBFU=   128
 Harris functional with IExCor= 4639 diagonalized for initial guess.
 ExpMin= 4.05D-02 ExpMax= 9.34D+04 ExpMxC= 3.17D+03 IAcc=2 IRadAn=         4 AccDes= 0.00D+00
 HarFok:  IExCor= 4639 AccDes= 0.00D+00 IRadAn=         4 IDoV= 1
 ScaDFX=  1.000000  1.000000  1.000000  1.000000
 FoFCou: FMM=F IPFlag=           0 FMFlag=      100000 FMFlg1=           0
         NFxFlg=           0 DoJE=T BraDBF=F KetDBF=T FulRan=T
         Omega=  0.000000  0.000000  1.000000  0.000000  0.000000 ICntrl=     500 IOpCl=  0
         NMat0=    1 NMatS0=    1 NMatT0=    0 NMatD0=    1 NMtDS0=    0 NMtDT0=    0
         I1Cent=           4 NGrid=           0.
 Petite list used in FoFCou.
 Initial guess orbital symmetries:
 Alpha Orbitals:
       Occupied  (A) (A) (A) (A) (A) (A) (A) (A) (A) (A) (A) (A)
                 (A) (A) (A) (A) (A)
       Virtual   (A) (A) (A) (A) (A) (A) (A) (A) (A) (A) (A) (A)
                 (A) (A) (A) (A) (A) (A) (A) (A) (A) (A) (A) (A)
                 (A) (A) (A) (A) (A) (A) (A) (A) (A) (A) (A) (A)
                 (A) (A) (A) (A) (A) (A) (A) (A) (A) (A) (A) (A)
                 (A) (A) (A) (A) (A) (A) (A) (A) (A) (A) (A) (A)
                 (A) (A) (A) (A) (A) (A) (A) (A) (A) (A) (A) (A)
                 (A) (A) (A) (A) (A) (A) (A) (A) (A) (A) (A) (A)
                 (A) (A) (A) (A) (A) (A) (A) (A) (A) (A) (A) (A)
                 (A) (A) (A) (A) (A) (A) (A) (A) (A) (A) (A) (A)
                 (A) (A) (A)
 Beta  Orbitals:
       Occupied  (A) (A) (A) (A) (A) (A) (A) (A) (A) (A) (A) (A)
                 (A) (A) (A) (A)
       Virtual   (A) (A) (A) (A) (A) (A) (A) (A) (A) (A) (A) (A)
                 (A) (A) (A) (A) (A) (A) (A) (A) (A) (A) (A) (A)
                 (A) (A) (A) (A) (A) (A) (A) (A) (A) (A) (A) (A)
                 (A) (A) (A) (A) (A) (A) (A) (A) (A) (A) (A) (A)
                 (A) (A) (A) (A) (A) (A) (A) (A) (A) (A) (A) (A)
                 (A) (A) (A) (A) (A) (A) (A) (A) (A) (A) (A) (A)
                 (A) (A) (A) (A) (A) (A) (A) (A) (A) (A) (A) (A)
                 (A) (A) (A) (A) (A) (A) (A) (A) (A) (A) (A) (A)
                 (A) (A) (A) (A) (A) (A) (A) (A) (A) (A) (A) (A)
                 (A) (A) (A) (A)
 The electronic state of the initial guess is 2-A.
 Initial guess <Sx>= 0.0000 <Sy>= 0.0000 <Sz>= 0.5000 <S**2>= 0.7500 S= 0.5000
 Requested convergence on RMS density matrix=1.00D-08 within 128 cycles.
 Requested convergence on MAX density matrix=1.00D-06.
 Requested convergence on             energy=1.00D-06.
 No special actions if energy rises.
 FoFJK:  IHMeth= 1 ICntrl=     0 DoSepK=T KAlg= 1 I1Cent= 0 FoldK=F
 FoFJK:  IHMeth= 1 ICntrl=     0 DoSepK=T KAlg= 1 I1Cent= 0 FoldK=F
 FoFJK:  IHMeth= 1 ICntrl=     0 DoSepK=T KAlg= 1 I1Cent= 0 FoldK=F
 FoFJK:  IHMeth= 1 ICntrl=     0 DoSepK=T KAlg= 1 I1Cent= 0 FoldK=F
 FoFJK:  IHMeth= 1 ICntrl=     0 DoSepK=T KAlg= 1 I1Cent= 0 FoldK=F
 FoFJK:  IHMeth= 1 ICntrl=     0 DoSepK=T KAlg= 1 I1Cent= 0 FoldK=F
 FoFJK:  IHMeth= 1 ICntrl=     0 DoSepK=T KAlg= 1 I1Cent= 0 FoldK=F
 FoFJK:  IHMeth= 1 ICntrl=     0 DoSepK=T KAlg= 1 I1Cent= 0 FoldK=F
 FoFJK:  IHMeth= 1 ICntrl=     0 DoSepK=T KAlg= 1 I1Cent= 0 FoldK=F
 FoFJK:  IHMeth= 1 ICntrl=     0 DoSepK=T KAlg= 1 I1Cent= 0 FoldK=F
 FoFJK:  IHMeth= 1 ICntrl=     0 DoSepK=T KAlg= 1 I1Cent= 0 FoldK=F
 FoFJK:  IHMeth= 1 ICntrl=     0 DoSepK=T KAlg= 1 I1Cent= 0 FoldK=F
 FoFJK:  IHMeth= 1 ICntrl=     0 DoSepK=T KAlg= 1 I1Cent= 0 FoldK=F
 FoFJK:  IHMeth= 1 ICntrl=     0 DoSepK=T KAlg= 1 I1Cent= 0 FoldK=F
 FoFJK:  IHMeth= 1 ICntrl=     0 DoSepK=T KAlg= 1 I1Cent= 0 FoldK=F
 SCF Done:  E(UwB97XD) =  -549.221095149     A.U. after   15 cycles
             Convg  =    0.7014D-08             -V/T =  2.0016
 <Sx>= 0.0000 <Sy>= 0.0000 <Sz>= 0.5000 <S**2>= 0.7555 S= 0.5027
 <L.S>= 0.000000000000E+00
 Annihilation of the first spin contaminant:
 S**2 before annihilation     0.7555,   after     0.7500

 **********************************************************************

            Population analysis using the SCF density.

 **********************************************************************

 Orbital symmetries:
 Alpha Orbitals:
       Occupied  (A) (A) (A) (A) (A) (A) (A) (A) (A) (A) (A) (A)
                 (A) (A) (A) (A) (A)
       Virtual   (A) (A) (A) (A) (A) (A) (A) (A) (A) (A) (A) (A)
                 (A) (A) (A) (A) (A) (A) (A) (A) (A) (A) (A) (A)
                 (A) (A) (A) (A) (A) (A) (A) (A) (A) (A) (A) (A)
                 (A) (A) (A) (A) (A) (A) (A) (A) (A) (A) (A) (A)
                 (A) (A) (A) (A) (A) (A) (A) (A) (A) (A) (A) (A)
                 (A) (A) (A) (A) (A) (A) (A) (A) (A) (A) (A) (A)
                 (A) (A) (A) (A) (A) (A) (A) (A) (A) (A) (A) (A)
                 (A) (A) (A) (A) (A) (A) (A) (A) (A) (A) (A) (A)
                 (A) (A) (A) (A) (A) (A) (A) (A) (A) (A) (A) (A)
                 (A) (A) (A)
 Beta  Orbitals:
       Occupied  (A) (A) (A) (A) (A) (A) (A) (A) (A) (A) (A) (A)
                 (A) (A) (A) (A)
       Virtual   (A) (A) (A) (A) (A) (A) (A) (A) (A) (A) (A) (A)
                 (A) (A) (A) (A) (A) (A) (A) (A) (A) (A) (A) (A)
                 (A) (A) (A) (A) (A) (A) (A) (A) (A) (A) (A) (A)
                 (A) (A) (A) (A) (A) (A) (A) (A) (A) (A) (A) (A)
                 (A) (A) (A) (A) (A) (A) (A) (A) (A) (A) (A) (A)
                 (A) (A) (A) (A) (A) (A) (A) (A) (A) (A) (A) (A)
                 (A) (A) (A) (A) (A) (A) (A) (A) (A) (A) (A) (A)
                 (A) (A) (A) (A) (A) (A) (A) (A) (A) (A) (A) (A)
                 (A) (A) (A) (A) (A) (A) (A) (A) (A) (A) (A) (A)
                 (A) (A) (A) (A)
 The electronic state is 2-A.
 Alpha  occ. eigenvalues --  -89.14949 -19.31729 -19.28231  -8.17708  -6.12639
 Alpha  occ. eigenvalues --   -6.12402  -6.12043  -1.22660  -1.14822  -0.80026
 Alpha  occ. eigenvalues --   -0.63307  -0.57509  -0.56612  -0.50595  -0.47014
 Alpha  occ. eigenvalues --   -0.42430  -0.31004
 Alpha virt. eigenvalues --    0.04945   0.06690   0.07548   0.09352   0.11959
 Alpha virt. eigenvalues --    0.13399   0.19121   0.22475   0.24602   0.24998
 Alpha virt. eigenvalues --    0.26337   0.28095   0.30181   0.32509   0.32948
 Alpha virt. eigenvalues --    0.35490   0.36432   0.38099   0.39272   0.40933
 Alpha virt. eigenvalues --    0.41176   0.50205   0.56816   0.68420   0.77687
 Alpha virt. eigenvalues --    0.81176   0.86581   0.88340   0.93611   0.95926
 Alpha virt. eigenvalues --    0.96361   0.97410   1.00056   1.02204   1.05763
 Alpha virt. eigenvalues --    1.08958   1.10259   1.13059   1.13831   1.17676
 Alpha virt. eigenvalues --    1.22292   1.29869   1.33264   1.37898   1.39855
 Alpha virt. eigenvalues --    1.43307   1.66869   1.68269   1.74395   1.81384
 Alpha virt. eigenvalues --    1.92860   2.01942   2.08436   2.08704   2.13781
 Alpha virt. eigenvalues --    2.20202   2.30551   2.36523   2.44806   3.37496
 Alpha virt. eigenvalues --    3.42793   3.45198   3.47637   3.50356   3.55502
 Alpha virt. eigenvalues --    3.56464   3.63438   3.70285   3.71819   4.53258
 Alpha virt. eigenvalues --    4.56957   4.61536   4.71196   4.90822   4.98705
 Alpha virt. eigenvalues --    5.03105   5.03725   5.04018   5.06872   5.09200
 Alpha virt. eigenvalues --    5.09968   5.11242   5.17071   5.24541   5.25105
 Alpha virt. eigenvalues --    5.42365   5.47004   5.54321   5.57667   5.67459
 Alpha virt. eigenvalues --    5.71664   5.85306   6.00255   6.60949   8.77721
 Alpha virt. eigenvalues --   14.32423  14.35945  14.37294  14.39131  14.41632
 Alpha virt. eigenvalues --   14.45515  14.46941  14.49285  14.62840  14.70919
 Alpha virt. eigenvalues --   17.36209  17.62611  17.89704  50.02858  50.10979
 Alpha virt. eigenvalues --  189.82819
  Beta  occ. eigenvalues --  -89.14565 -19.31493 -19.27346  -8.17364  -6.12411
  Beta  occ. eigenvalues --   -6.11834  -6.11167  -1.21546  -1.13348  -0.77743
  Beta  occ. eigenvalues --   -0.61964  -0.56690  -0.53272  -0.48501  -0.43361
  Beta  occ. eigenvalues --   -0.41250
  Beta virt. eigenvalues --   -0.03938   0.05427   0.07034   0.07997   0.09963
  Beta virt. eigenvalues --    0.12772   0.14276   0.19452   0.22710   0.24925
  Beta virt. eigenvalues --    0.25193   0.26756   0.28499   0.30490   0.32686
  Beta virt. eigenvalues --    0.34085   0.35744   0.37011   0.38709   0.40591
  Beta virt. eigenvalues --    0.41520   0.41856   0.50819   0.57041   0.68932
  Beta virt. eigenvalues --    0.78216   0.81442   0.86990   0.89221   0.94207
  Beta virt. eigenvalues --    0.96332   0.97409   0.98344   1.00953   1.02890
  Beta virt. eigenvalues --    1.06473   1.09889   1.12223   1.13679   1.14157
  Beta virt. eigenvalues --    1.18497   1.23527   1.30363   1.34555   1.38706
  Beta virt. eigenvalues --    1.40231   1.43681   1.70004   1.70216   1.76044
  Beta virt. eigenvalues --    1.82908   1.93661   2.03358   2.09060   2.11052
  Beta virt. eigenvalues --    2.14222   2.20689   2.31053   2.37484   2.45253
  Beta virt. eigenvalues --    3.38365   3.44311   3.47287   3.48892   3.51766
  Beta virt. eigenvalues --    3.56614   3.58310   3.64155   3.71244   3.72404
  Beta virt. eigenvalues --    4.53795   4.57097   4.62409   4.71700   4.91403
  Beta virt. eigenvalues --    4.99242   5.03738   5.04536   5.04788   5.08167
  Beta virt. eigenvalues --    5.11861   5.12830   5.13382   5.17853   5.25745
  Beta virt. eigenvalues --    5.26119   5.42943   5.47520   5.55074   5.58447
  Beta virt. eigenvalues --    5.68345   5.72238   5.86986   6.00742   6.61355
  Beta virt. eigenvalues --    8.78081  14.33671  14.38277  14.40364  14.41125
  Beta virt. eigenvalues --   14.43828  14.47307  14.49224  14.50705  14.63395
  Beta virt. eigenvalues --   14.72956  17.37598  17.62902  17.90023  50.03073
  Beta virt. eigenvalues --   50.11771 189.83123
          Condensed to atoms (all electrons):
              1          2          3          4
     1  S   15.342363  -0.005089   0.147210   0.008557
     2  O   -0.005089   8.411280   0.000224   0.210419
     3  O    0.147210   0.000224   8.237822  -0.000105
     4  H    0.008557   0.210419  -0.000105   0.286101
 Mulliken atomic charges:
              1
     1  S    0.506959
     2  O   -0.616835
     3  O   -0.385151
     4  H    0.495027
 Sum of Mulliken atomic charges =   0.00000
 Mulliken charges with hydrogens summed into heavy atoms:
              1
     1  S    0.506959
     2  O   -0.121808
     3  O   -0.385151
 Sum of Mulliken charges with hydrogens summed into heavy atoms =   0.00000
          Atomic-Atomic Spin Densities.
              1          2          3          4
     1  S    0.939882  -0.101763  -0.195809  -0.001192
     2  O   -0.101763   0.143948   0.019357  -0.004438
     3  O   -0.195809   0.019357   0.476939  -0.000276
     4  H   -0.001192  -0.004438  -0.000276   0.007475
 Mulliken atomic spin densities:
              1
     1  S    0.641118
     2  O    0.057104
     3  O    0.300210
     4  H    0.001568
 Sum of Mulliken atomic spin densities =   1.00000
 Electronic spatial extent (au):  <R**2>=            175.5655
 Charge=              0.0000 electrons
 Dipole moment (field-independent basis, Debye):
    X=              1.2450    Y=             -0.0012    Z=              0.5810  Tot=              1.3739
 Quadrupole moment (field-independent basis, Debye-Ang):
   XX=            -26.6342   YY=            -21.1136   ZZ=            -23.5389
   XY=              3.3089   XZ=              0.7344   YZ=              0.9154
 Traceless Quadrupole moment (field-independent basis, Debye-Ang):
   XX=             -2.8720   YY=              2.6487   ZZ=              0.2233
   XY=              3.3089   XZ=              0.7344   YZ=              0.9154
 Octapole moment (field-independent basis, Debye-Ang**2):
  XXX=              1.3375  YYY=              5.1279  ZZZ=             -0.0108  XYY=              4.4393
  XXY=              0.8892  XXZ=              0.8670  XZZ=              0.2090  YZZ=              1.2523
  YYZ=              1.0649  XYZ=              1.0785
 Hexadecapole moment (field-independent basis, Debye-Ang**3):
 XXXX=           -138.2660 YYYY=            -52.7771 ZZZZ=            -24.9222 XXXY=              5.7258
 XXXZ=              1.2013 YYYX=              6.0102 YYYZ=              1.5126 ZZZX=              0.4067
 ZZZY=              0.6482 XXYY=            -26.5411 XXZZ=            -26.2879 YYZZ=            -13.9805
 XXYZ=              1.4570 YYXZ=              1.2872 ZZXY=              0.4839
 N-N= 1.118464600123D+02 E-N=-2.283171335179D+03  KE= 8.210650621815D+02
                          Isotropic Fermi Contact Couplings
        Atom                 a.u.       MegaHertz       Gauss      10(-4) cm-1
     1  S(33)              0.10180      34.96443      12.47618      11.66288
     2  O(17)              0.02128     -12.90143      -4.60355      -4.30345
     3  O(17)              0.05207     -31.56260     -11.26232     -10.52815
     4  H(1)               0.00100       4.47772       1.59776       1.49361
 --------------------------------------------------------
       Center         ----  Spin Dipole Couplings  ----
                      3XX-RR        3YY-RR        3ZZ-RR
 --------------------------------------------------------
     1   Atom       -1.503255     -1.609644      3.112899
     2   Atom       -0.231219     -0.193974      0.425192
     3   Atom       -0.771847     -0.775176      1.547023
     4   Atom       -0.008383      0.019660     -0.011277
 --------------------------------------------------------
                        XY            XZ            YZ
 --------------------------------------------------------
     1   Atom       -0.004539     -0.059851      0.184213
     2   Atom        0.005538      0.017817     -0.117898
     3   Atom        0.006535      0.084988      0.040403
     4   Atom        0.004617      0.001333      0.005368
 --------------------------------------------------------


 ---------------------------------------------------------------------------------
              Anisotropic Spin Dipole Couplings in Principal Axis System
 ---------------------------------------------------------------------------------

       Atom             a.u.   MegaHertz   Gauss  10(-4) cm-1        Axes

              Baa    -1.6169   -66.290   -23.654   -22.112  0.0196  0.9991 -0.0387
     1 S(33)  Bbb    -1.5040   -61.662   -22.003   -20.568  0.9997 -0.0190  0.0137
              Bcc     3.1209   127.952    45.656    42.680 -0.0130  0.0389  0.9992
 
              Baa    -0.2354    17.035     6.079     5.682  0.9155 -0.3911 -0.0945
     2 O(17)  Bbb    -0.2119    15.330     5.470     5.114  0.4016  0.9025  0.1558
              Bcc     0.4473   -32.365   -11.549   -10.796  0.0243 -0.1806  0.9833
 
              Baa    -0.7805    56.476    20.152    18.838 -0.6740  0.7386  0.0118
     3 O(17)  Bbb    -0.7703    55.742    19.890    18.593  0.7378  0.6739 -0.0388
              Bcc     1.5508  -112.218   -40.042   -37.432  0.0366  0.0175  0.9992
 
              Baa    -0.0123    -6.549    -2.337    -2.185 -0.1684 -0.1397  0.9758
     4 H(1)   Bbb    -0.0091    -4.832    -1.724    -1.612  0.9729 -0.1829  0.1417
              Bcc     0.0213    11.382     4.061     3.796  0.1587  0.9732  0.1667
 

 ---------------------------------------------------------------------------------

 1\1\ CPUSERV-QCEXNOD10\SP\UwB97XD\6-311+G(3df)\H1O2S1(2)\ROOT\21-Aug-2
 025\0\\#sp wB97XD/6-311+G(3df)\\Optimizacion del hoso\\0,2\S,0,-0.1393
 43,-0.483008,0.017808\O,0,1.296132,0.265971,-0.04754\O,0,-1.168636,0.5
 54438,-0.021537\H,0,1.190521,1.167845,0.282681\\Version=EM64L-G09RevC.
 01\State=2-A\HF=-549.2210951\S2=0.755453\S2-1=0.\S2A=0.750021\RMSD=7.0
 14e-09\Dipole=0.4897936,0.0007724,0.228691\Quadrupole=-2.1468427,1.981
 3,0.1655427,2.4506991,0.5426575,0.6814126\PG=C01 [X(H1O2S1)]\\@


 IF YOU PERCEIVE THAT THERE ARE FOUR POSSIBLE WAYS IN
 WHICH A PROCEDURE CAN GO WRONG AND CIRCUMVENT THESE, 
 THEN A FIFTH WAY WILL DEVELOP.

                              -- MURPHY'S TWELFTH LAW
 Job cpu time:  0 days  0 hours  3 minutes 35.8 seconds.
 File lengths (MBytes):  RWF=     21 Int=      0 D2E=      0 Chk=      2 Scr=      1
 Normal termination of Gaussian 09 at Thu Aug 21 01:11:05 2025.
