 Entering Gaussian System, Link 0=g09
 Initial command:
 /soft/g09.c01/g09/l1.exe /scr/macias/389568.qcexmaster_vib1_-0.15/Gau-27028.inp -scrdir=/scr/macias/389568.qcexmaster_vib1_-0.15/
 Entering Link 1 = /soft/g09.c01/g09/l1.exe PID=     27030.
  
 Copyright (c) 1988,1990,1992,1993,1995,1998,2003,2009,2011,
            Gaussian, Inc.  All Rights Reserved.
  
 This is part of the Gaussian(R) 09 program.  It is based on
 the Gaussian(R) 03 system (copyright 2003, Gaussian, Inc.),
 the Gaussian(R) 98 system (copyright 1998, Gaussian, Inc.),
 the Gaussian(R) 94 system (copyright 1995, Gaussian, Inc.),
 the Gaussian 92(TM) system (copyright 1992, Gaussian, Inc.),
 the Gaussian 90(TM) system (copyright 1990, Gaussian, Inc.),
 the Gaussian 88(TM) system (copyright 1988, Gaussian, Inc.),
 the Gaussian 86(TM) system (copyright 1986, Carnegie Mellon
 University), and the Gaussian 82(TM) system (copyright 1983,
 Carnegie Mellon University). Gaussian is a federally registered
 trademark of Gaussian, Inc.
  
 This software contains proprietary and confidential information,
 including trade secrets, belonging to Gaussian, Inc.
  
 This software is provided under written license and may be
 used, copied, transmitted, or stored only in accord with that
 written license.
  
 The following legend is applicable only to US Government
 contracts under FAR:
  
                    RESTRICTED RIGHTS LEGEND
  
 Use, reproduction and disclosure by the US Government is
 subject to restrictions as set forth in subparagraphs (a)
 and (c) of the Commercial Computer Software - Restricted
 Rights clause in FAR 52.227-19.
  
 Gaussian, Inc.
 340 Quinnipiac St., Bldg. 40, Wallingford CT 06492
  
  
 ---------------------------------------------------------------
 Warning -- This program may not be used in any manner that
 competes with the business of Gaussian, Inc. or will provide
 assistance to any competitor of Gaussian, Inc.  The licensee
 of this program is prohibited from giving any competitor of
 Gaussian, Inc. access to this program.  By using this program,
 the user acknowledges that Gaussian, Inc. is engaged in the
 business of creating and licensing software in the field of
 computational chemistry and represents and warrants to the
 licensee that it is not a competitor of Gaussian, Inc. and that
 it will not use this program in any manner prohibited above.
 ---------------------------------------------------------------
  

 Cite this work as:
 Gaussian 09, Revision C.01,
 M. J. Frisch, G. W. Trucks, H. B. Schlegel, G. E. Scuseria, 
 M. A. Robb, J. R. Cheeseman, G. Scalmani, V. Barone, B. Mennucci, 
 G. A. Petersson, H. Nakatsuji, M. Caricato, X. Li, H. P. Hratchian, 
 A. F. Izmaylov, J. Bloino, G. Zheng, J. L. Sonnenberg, M. Hada, 
 M. Ehara, K. Toyota, R. Fukuda, J. Hasegawa, M. Ishida, T. Nakajima, 
 Y. Honda, O. Kitao, H. Nakai, T. Vreven, J. A. Montgomery, Jr., 
 J. E. Peralta, F. Ogliaro, M. Bearpark, J. J. Heyd, E. Brothers, 
 K. N. Kudin, V. N. Staroverov, T. Keith, R. Kobayashi, J. Normand, 
 K. Raghavachari, A. Rendell, J. C. Burant, S. S. Iyengar, J. Tomasi, 
 M. Cossi, N. Rega, J. M. Millam, M. Klene, J. E. Knox, J. B. Cross, 
 V. Bakken, C. Adamo, J. Jaramillo, R. Gomperts, R. E. Stratmann, 
 O. Yazyev, A. J. Austin, R. Cammi, C. Pomelli, J. W. Ochterski, 
 R. L. Martin, K. Morokuma, V. G. Zakrzewski, G. A. Voth, 
 P. Salvador, J. J. Dannenberg, S. Dapprich, A. D. Daniels, 
 O. Farkas, J. B. Foresman, J. V. Ortiz, J. Cioslowski, 
 and D. J. Fox, Gaussian, Inc., Wallingford CT, 2010.
 
  
 -----  Compilado por  -----------------------------------------
  
  Servicio de Calculo | Servicio de Informatica U. de Valencia
     calculo@uv.es    |  E-46100 Burjassot (Valencia) SPAIN
  
 ---------------------------------------------------------------
  
 ******************************************
 Gaussian 09:  EM64L-G09RevC.01 23-Sep-2011
                21-Aug-2025 
 ******************************************
 %chk=opt_freq.chk
 %nproc=6
 Will use up to    6 processors via shared memory.
 %mem=20GB
 Default route:  CacheSize=131072
 -----------------------
 #sp wB97XD/6-311+G(3df)
 -----------------------
 1/4=131072,38=1/1;
 2/4=131072,12=2,17=6,18=5,40=1/2;
 3/4=131072,5=4,6=6,7=16,11=2,16=1,25=1,30=1,74=-58/1,2,3;
 4/4=131072/1;
 5/4=131072,5=2,38=5/2;
 6/4=131072,7=2,8=2,9=2,10=2,28=1/1;
 99/4=131072,5=1,9=1/99;
 ---------------------
 Optimizacion del hoso
 ---------------------
 Charge =  0 Multiplicity = 2
 Symbolic Z-Matrix:
 S                    -0.13884  -0.47701   0.01181 
 O                     1.31013   0.25647  -0.03304 
 O                    -1.18114   0.54844  -0.01404 
 H                     1.18202   1.21385   0.12468 
 
                          Input orientation:                          
 ---------------------------------------------------------------------
 Center     Atomic      Atomic             Coordinates (Angstroms)
 Number     Number       Type             X           Y           Z
 ---------------------------------------------------------------------
      1         16           0       -0.138843   -0.477008    0.011808
      2          8           0        1.310132    0.256471   -0.033040
      3          8           0       -1.181136    0.548438   -0.014037
      4          1           0        1.182021    1.213845    0.124681
 ---------------------------------------------------------------------
                    Distance matrix (angstroms):
                    1          2          3          4
     1  S    0.000000
     2  O    1.624663   0.000000
     3  O    1.462389   2.508390   0.000000
     4  H    2.148582   0.978700   2.458967   0.000000
 Stoichiometry    HO2S(2)
 Framework group  C1[X(HO2S)]
 Deg. of freedom     6
 Full point group                 C1      NOp   1
 Largest Abelian subgroup         C1      NOp   1
 Largest concise Abelian subgroup C1      NOp   1
                         Standard orientation:                         
 ---------------------------------------------------------------------
 Center     Atomic      Atomic             Coordinates (Angstroms)
 Number     Number       Type             X           Y           Z
 ---------------------------------------------------------------------
      1         16           0       -0.138677   -0.477735    0.009177
      2          8           0        1.310467    0.256013   -0.024394
      3          8           0       -1.180843    0.547955   -0.011587
      4          1           0        1.181836    1.212020    0.141006
 ---------------------------------------------------------------------
 Rotational constants (GHZ):     34.6526508      9.7448872      7.6131627
 Standard basis: 6-311+G(3df) (5D, 7F)
 There are   128 symmetry adapted basis functions of A   symmetry.
 Integral buffers will be    131072 words long.
 Raffenetti 2 integral format.
 Two-electron integral symmetry is turned on.
   128 basis functions,   193 primitive gaussians,   146 cartesian basis functions
    17 alpha electrons       16 beta electrons
       nuclear repulsion energy       111.4988000165 Hartrees.
 NAtoms=    4 NActive=    4 NUniq=    4 SFac= 1.00D+00 NAtFMM=   60 NAOKFM=F Big=F
 Nuclear repulsion after empirical dispersion term =      111.4985569155 Hartrees.
 One-electron integrals computed using PRISM.
 NBasis=   128 RedAO= T  NBF=   128
 NBsUse=   128 1.00D-06 NBFU=   128
 Harris functional with IExCor= 4639 diagonalized for initial guess.
 ExpMin= 4.05D-02 ExpMax= 9.34D+04 ExpMxC= 3.17D+03 IAcc=2 IRadAn=         4 AccDes= 0.00D+00
 HarFok:  IExCor= 4639 AccDes= 0.00D+00 IRadAn=         4 IDoV= 1
 ScaDFX=  1.000000  1.000000  1.000000  1.000000
 FoFCou: FMM=F IPFlag=           0 FMFlag=      100000 FMFlg1=           0
         NFxFlg=           0 DoJE=T BraDBF=F KetDBF=T FulRan=T
         Omega=  0.000000  0.000000  1.000000  0.000000  0.000000 ICntrl=     500 IOpCl=  0
         NMat0=    1 NMatS0=    1 NMatT0=    0 NMatD0=    1 NMtDS0=    0 NMtDT0=    0
         I1Cent=           4 NGrid=           0.
 Petite list used in FoFCou.
 Initial guess orbital symmetries:
 Alpha Orbitals:
       Occupied  (A) (A) (A) (A) (A) (A) (A) (A) (A) (A) (A) (A)
                 (A) (A) (A) (A) (A)
       Virtual   (A) (A) (A) (A) (A) (A) (A) (A) (A) (A) (A) (A)
                 (A) (A) (A) (A) (A) (A) (A) (A) (A) (A) (A) (A)
                 (A) (A) (A) (A) (A) (A) (A) (A) (A) (A) (A) (A)
                 (A) (A) (A) (A) (A) (A) (A) (A) (A) (A) (A) (A)
                 (A) (A) (A) (A) (A) (A) (A) (A) (A) (A) (A) (A)
                 (A) (A) (A) (A) (A) (A) (A) (A) (A) (A) (A) (A)
                 (A) (A) (A) (A) (A) (A) (A) (A) (A) (A) (A) (A)
                 (A) (A) (A) (A) (A) (A) (A) (A) (A) (A) (A) (A)
                 (A) (A) (A) (A) (A) (A) (A) (A) (A) (A) (A) (A)
                 (A) (A) (A)
 Beta  Orbitals:
       Occupied  (A) (A) (A) (A) (A) (A) (A) (A) (A) (A) (A) (A)
                 (A) (A) (A) (A)
       Virtual   (A) (A) (A) (A) (A) (A) (A) (A) (A) (A) (A) (A)
                 (A) (A) (A) (A) (A) (A) (A) (A) (A) (A) (A) (A)
                 (A) (A) (A) (A) (A) (A) (A) (A) (A) (A) (A) (A)
                 (A) (A) (A) (A) (A) (A) (A) (A) (A) (A) (A) (A)
                 (A) (A) (A) (A) (A) (A) (A) (A) (A) (A) (A) (A)
                 (A) (A) (A) (A) (A) (A) (A) (A) (A) (A) (A) (A)
                 (A) (A) (A) (A) (A) (A) (A) (A) (A) (A) (A) (A)
                 (A) (A) (A) (A) (A) (A) (A) (A) (A) (A) (A) (A)
                 (A) (A) (A) (A) (A) (A) (A) (A) (A) (A) (A) (A)
                 (A) (A) (A) (A)
 The electronic state of the initial guess is 2-A.
 Initial guess <Sx>= 0.0000 <Sy>= 0.0000 <Sz>= 0.5000 <S**2>= 0.7500 S= 0.5000
 Requested convergence on RMS density matrix=1.00D-08 within 128 cycles.
 Requested convergence on MAX density matrix=1.00D-06.
 Requested convergence on             energy=1.00D-06.
 No special actions if energy rises.
 FoFJK:  IHMeth= 1 ICntrl=     0 DoSepK=T KAlg= 1 I1Cent= 0 FoldK=F
 FoFJK:  IHMeth= 1 ICntrl=     0 DoSepK=T KAlg= 1 I1Cent= 0 FoldK=F
 FoFJK:  IHMeth= 1 ICntrl=     0 DoSepK=T KAlg= 1 I1Cent= 0 FoldK=F
 FoFJK:  IHMeth= 1 ICntrl=     0 DoSepK=T KAlg= 1 I1Cent= 0 FoldK=F
 FoFJK:  IHMeth= 1 ICntrl=     0 DoSepK=T KAlg= 1 I1Cent= 0 FoldK=F
 FoFJK:  IHMeth= 1 ICntrl=     0 DoSepK=T KAlg= 1 I1Cent= 0 FoldK=F
 FoFJK:  IHMeth= 1 ICntrl=     0 DoSepK=T KAlg= 1 I1Cent= 0 FoldK=F
 FoFJK:  IHMeth= 1 ICntrl=     0 DoSepK=T KAlg= 1 I1Cent= 0 FoldK=F
 FoFJK:  IHMeth= 1 ICntrl=     0 DoSepK=T KAlg= 1 I1Cent= 0 FoldK=F
 FoFJK:  IHMeth= 1 ICntrl=     0 DoSepK=T KAlg= 1 I1Cent= 0 FoldK=F
 FoFJK:  IHMeth= 1 ICntrl=     0 DoSepK=T KAlg= 1 I1Cent= 0 FoldK=F
 FoFJK:  IHMeth= 1 ICntrl=     0 DoSepK=T KAlg= 1 I1Cent= 0 FoldK=F
 FoFJK:  IHMeth= 1 ICntrl=     0 DoSepK=T KAlg= 1 I1Cent= 0 FoldK=F
 FoFJK:  IHMeth= 1 ICntrl=     0 DoSepK=T KAlg= 1 I1Cent= 0 FoldK=F
 FoFJK:  IHMeth= 1 ICntrl=     0 DoSepK=T KAlg= 1 I1Cent= 0 FoldK=F
 SCF Done:  E(UwB97XD) =  -549.221108064     A.U. after   15 cycles
             Convg  =    0.5287D-08             -V/T =  2.0017
 <Sx>= 0.0000 <Sy>= 0.0000 <Sz>= 0.5000 <S**2>= 0.7554 S= 0.5027
 <L.S>= 0.000000000000E+00
 Annihilation of the first spin contaminant:
 S**2 before annihilation     0.7554,   after     0.7500

 **********************************************************************

            Population analysis using the SCF density.

 **********************************************************************

 Orbital symmetries:
 Alpha Orbitals:
       Occupied  (A) (A) (A) (A) (A) (A) (A) (A) (A) (A) (A) (A)
                 (A) (A) (A) (A) (A)
       Virtual   (A) (A) (A) (A) (A) (A) (A) (A) (A) (A) (A) (A)
                 (A) (A) (A) (A) (A) (A) (A) (A) (A) (A) (A) (A)
                 (A) (A) (A) (A) (A) (A) (A) (A) (A) (A) (A) (A)
                 (A) (A) (A) (A) (A) (A) (A) (A) (A) (A) (A) (A)
                 (A) (A) (A) (A) (A) (A) (A) (A) (A) (A) (A) (A)
                 (A) (A) (A) (A) (A) (A) (A) (A) (A) (A) (A) (A)
                 (A) (A) (A) (A) (A) (A) (A) (A) (A) (A) (A) (A)
                 (A) (A) (A) (A) (A) (A) (A) (A) (A) (A) (A) (A)
                 (A) (A) (A) (A) (A) (A) (A) (A) (A) (A) (A) (A)
                 (A) (A) (A)
 Beta  Orbitals:
       Occupied  (A) (A) (A) (A) (A) (A) (A) (A) (A) (A) (A) (A)
                 (A) (A) (A) (A)
       Virtual   (A) (A) (A) (A) (A) (A) (A) (A) (A) (A) (A) (A)
                 (A) (A) (A) (A) (A) (A) (A) (A) (A) (A) (A) (A)
                 (A) (A) (A) (A) (A) (A) (A) (A) (A) (A) (A) (A)
                 (A) (A) (A) (A) (A) (A) (A) (A) (A) (A) (A) (A)
                 (A) (A) (A) (A) (A) (A) (A) (A) (A) (A) (A) (A)
                 (A) (A) (A) (A) (A) (A) (A) (A) (A) (A) (A) (A)
                 (A) (A) (A) (A) (A) (A) (A) (A) (A) (A) (A) (A)
                 (A) (A) (A) (A) (A) (A) (A) (A) (A) (A) (A) (A)
                 (A) (A) (A) (A) (A) (A) (A) (A) (A) (A) (A) (A)
                 (A) (A) (A) (A)
 The electronic state is 2-A.
 Alpha  occ. eigenvalues --  -89.14924 -19.31914 -19.28295  -8.17680  -6.12611
 Alpha  occ. eigenvalues --   -6.12374  -6.12018  -1.22422  -1.14804  -0.79876
 Alpha  occ. eigenvalues --   -0.63061  -0.57369  -0.56741  -0.50362  -0.47424
 Alpha  occ. eigenvalues --   -0.42491  -0.30764
 Alpha virt. eigenvalues --    0.04986   0.06750   0.07562   0.09399   0.11608
 Alpha virt. eigenvalues --    0.13132   0.19063   0.22602   0.24466   0.24829
 Alpha virt. eigenvalues --    0.26614   0.27817   0.30386   0.32443   0.32955
 Alpha virt. eigenvalues --    0.35530   0.36783   0.37636   0.39008   0.40283
 Alpha virt. eigenvalues --    0.41290   0.51193   0.55859   0.68836   0.78025
 Alpha virt. eigenvalues --    0.79962   0.87018   0.87962   0.94597   0.96209
 Alpha virt. eigenvalues --    0.96887   0.97132   1.00246   1.02668   1.05105
 Alpha virt. eigenvalues --    1.09089   1.09966   1.12778   1.13930   1.17254
 Alpha virt. eigenvalues --    1.22148   1.29201   1.33293   1.38175   1.39913
 Alpha virt. eigenvalues --    1.42716   1.66776   1.68130   1.74891   1.80082
 Alpha virt. eigenvalues --    1.92688   2.02106   2.08210   2.08694   2.13019
 Alpha virt. eigenvalues --    2.20155   2.31276   2.36453   2.46174   3.36622
 Alpha virt. eigenvalues --    3.42182   3.45275   3.47787   3.49788   3.55623
 Alpha virt. eigenvalues --    3.56507   3.63007   3.70408   3.71101   4.53309
 Alpha virt. eigenvalues --    4.57246   4.61416   4.71044   4.91226   4.98463
 Alpha virt. eigenvalues --    5.03168   5.03538   5.04657   5.06629   5.09206
 Alpha virt. eigenvalues --    5.09817   5.11137   5.16477   5.24345   5.24963
 Alpha virt. eigenvalues --    5.41429   5.46599   5.54016   5.56724   5.66382
 Alpha virt. eigenvalues --    5.70745   5.85050   6.00182   6.58972   8.77330
 Alpha virt. eigenvalues --   14.31887  14.35657  14.37288  14.39231  14.41123
 Alpha virt. eigenvalues --   14.45571  14.46332  14.49071  14.62353  14.70896
 Alpha virt. eigenvalues --   17.36094  17.62027  17.89944  50.02520  50.11094
 Alpha virt. eigenvalues --  189.82150
  Beta  occ. eigenvalues --  -89.14537 -19.31648 -19.27426  -8.17335  -6.12382
  Beta  occ. eigenvalues --   -6.11808  -6.11129  -1.21268  -1.13347  -0.77587
  Beta  occ. eigenvalues --   -0.61828  -0.56676  -0.52924  -0.48818  -0.43355
  Beta  occ. eigenvalues --   -0.41301
  Beta virt. eigenvalues --   -0.03734   0.05454   0.07092   0.08024   0.10002
  Beta virt. eigenvalues --    0.12644   0.13734   0.19384   0.22825   0.24816
  Beta virt. eigenvalues --    0.24992   0.27212   0.28149   0.30592   0.32585
  Beta virt. eigenvalues --    0.34192   0.35768   0.37227   0.38519   0.40518
  Beta virt. eigenvalues --    0.40956   0.41598   0.51800   0.56037   0.69335
  Beta virt. eigenvalues --    0.78599   0.80339   0.87342   0.88876   0.95207
  Beta virt. eigenvalues --    0.96527   0.97644   0.98370   1.01150   1.03334
  Beta virt. eigenvalues --    1.05923   1.10003   1.11976   1.13175   1.14317
  Beta virt. eigenvalues --    1.18067   1.23483   1.29628   1.34781   1.38926
  Beta virt. eigenvalues --    1.40280   1.43037   1.69905   1.70097   1.76523
  Beta virt. eigenvalues --    1.81691   1.93425   2.03553   2.08876   2.11054
  Beta virt. eigenvalues --    2.13401   2.20594   2.31759   2.37375   2.46637
  Beta virt. eigenvalues --    3.37607   3.43626   3.47432   3.48958   3.51211
  Beta virt. eigenvalues --    3.57041   3.58155   3.63678   3.71265   3.71785
  Beta virt. eigenvalues --    4.53854   4.57399   4.62282   4.71525   4.91811
  Beta virt. eigenvalues --    4.99085   5.03811   5.04656   5.05278   5.07878
  Beta virt. eigenvalues --    5.11723   5.12705   5.13225   5.17277   5.25259
  Beta virt. eigenvalues --    5.26250   5.42059   5.47123   5.54830   5.57485
  Beta virt. eigenvalues --    5.67020   5.71512   5.86736   6.00680   6.59383
  Beta virt. eigenvalues --    8.77690  14.33298  14.37928  14.40391  14.41140
  Beta virt. eigenvalues --   14.43452  14.46893  14.49340  14.50193  14.62979
  Beta virt. eigenvalues --   14.72879  17.37494  17.62320  17.90264  50.02769
  Beta virt. eigenvalues --   50.11864 189.82456
          Condensed to atoms (all electrons):
              1          2          3          4
     1  S   15.353629  -0.014218   0.138611   0.012765
     2  O   -0.014218   8.417473   0.005573   0.207973
     3  O    0.138611   0.005573   8.241654   0.000362
     4  H    0.012765   0.207973   0.000362   0.285109
 Mulliken atomic charges:
              1
     1  S    0.509213
     2  O   -0.616802
     3  O   -0.386201
     4  H    0.493790
 Sum of Mulliken atomic charges =   0.00000
 Mulliken charges with hydrogens summed into heavy atoms:
              1
     1  S    0.509213
     2  O   -0.123012
     3  O   -0.386201
 Sum of Mulliken charges with hydrogens summed into heavy atoms =   0.00000
          Atomic-Atomic Spin Densities.
              1          2          3          4
     1  S    0.952624  -0.112075  -0.199150   0.002454
     2  O   -0.112075   0.160831   0.020685  -0.003556
     3  O   -0.199150   0.020685   0.471611  -0.001384
     4  H    0.002454  -0.003556  -0.001384   0.000986
 Mulliken atomic spin densities:
              1
     1  S    0.643852
     2  O    0.065886
     3  O    0.291762
     4  H   -0.001500
 Sum of Mulliken atomic spin densities =   1.00000
 Electronic spatial extent (au):  <R**2>=            176.8778
 Charge=              0.0000 electrons
 Dipole moment (field-independent basis, Debye):
    X=              1.2402    Y=              0.1251    Z=              0.2916  Tot=              1.2801
 Quadrupole moment (field-independent basis, Debye-Ang):
   XX=            -26.7715   YY=            -20.8517   ZZ=            -23.7455
   XY=              3.3724   XZ=              0.3598   YZ=              0.4749
 Traceless Quadrupole moment (field-independent basis, Debye-Ang):
   XX=             -2.9819   YY=              2.9379   ZZ=              0.0440
   XY=              3.3724   XZ=              0.3598   YZ=              0.4749
 Octapole moment (field-independent basis, Debye-Ang**2):
  XXX=              1.1944  YYY=              5.6182  ZZZ=             -0.0318  XYY=              4.7234
  XXY=              0.8800  XXZ=              0.4207  XZZ=             -0.0346  YZZ=              1.0814
  YYZ=              0.5710  XYZ=              0.5532
 Hexadecapole moment (field-independent basis, Debye-Ang**3):
 XXXX=           -140.6499 YYYY=            -51.4986 ZZZZ=            -24.8331 XXXY=              5.6149
 XXXZ=              0.5611 YYYX=              6.5520 YYYZ=              0.8291 ZZZX=              0.1777
 ZZZY=              0.3076 XXYY=            -26.5486 XXZZ=            -26.9449 YYZZ=            -14.0875
 XXYZ=              0.7467 YYXZ=              0.6794 ZZXY=              0.2853
 N-N= 1.114985569155D+02 E-N=-2.282083586436D+03  KE= 8.210064432320D+02
                          Isotropic Fermi Contact Couplings
        Atom                 a.u.       MegaHertz       Gauss      10(-4) cm-1
     1  S(33)              0.10382      35.65837      12.72379      11.89435
     2  O(17)              0.01873     -11.35138      -4.05045      -3.78641
     3  O(17)              0.05149     -31.21009     -11.13654     -10.41057
     4  H(1)              -0.00120      -5.38312      -1.92083      -1.79561
 --------------------------------------------------------
       Center         ----  Spin Dipole Couplings  ----
                      3XX-RR        3YY-RR        3ZZ-RR
 --------------------------------------------------------
     1   Atom       -1.515369     -1.627979      3.143347
     2   Atom       -0.258203     -0.233636      0.491839
     3   Atom       -0.761626     -0.761238      1.522864
     4   Atom       -0.009927      0.021304     -0.011376
 --------------------------------------------------------
                        XY            XZ            YZ
 --------------------------------------------------------
     1   Atom       -0.001214     -0.031958      0.102041
     2   Atom        0.008805      0.010344     -0.067494
     3   Atom        0.004188      0.045256      0.020254
     4   Atom        0.003727      0.000655      0.002622
 --------------------------------------------------------


 ---------------------------------------------------------------------------------
              Anisotropic Spin Dipole Couplings in Principal Axis System
 ---------------------------------------------------------------------------------

       Atom             a.u.   MegaHertz   Gauss  10(-4) cm-1        Axes

              Baa    -1.6302   -66.835   -23.848   -22.294  0.0046  0.9998 -0.0213
     1 S(33)  Bbb    -1.5156   -62.138   -22.172   -20.727  1.0000 -0.0045  0.0070
              Bcc     3.1457   128.973    46.021    43.021 -0.0069  0.0214  0.9997
 
              Baa    -0.2625    18.994     6.778     6.336  0.9188 -0.3918 -0.0477
     2 O(17)  Bbb    -0.2357    17.054     6.085     5.689  0.3945  0.9155  0.0793
              Bcc     0.4982   -36.048   -12.863   -12.024  0.0125 -0.0917  0.9957
 
              Baa    -0.7658    55.412    19.773    18.484  0.7564 -0.6541 -0.0092
     3 O(17)  Bbb    -0.7581    54.859    19.575    18.299  0.6539  0.7564 -0.0197
              Bcc     1.5239  -110.271   -39.348   -36.783  0.0198  0.0089  0.9998
 
              Baa    -0.0117    -6.233    -2.224    -2.079 -0.2597 -0.0473  0.9645
     4 H(1)   Bbb    -0.0103    -5.483    -1.956    -1.829  0.9585 -0.1340  0.2516
              Bcc     0.0220    11.716     4.180     3.908  0.1173  0.9899  0.0802
 

 ---------------------------------------------------------------------------------

 1\1\ CPUSERV-QCEXNOD04\SP\UwB97XD\6-311+G(3df)\H1O2S1(2)\ROOT\21-Aug-2
 025\0\\#sp wB97XD/6-311+G(3df)\\Optimizacion del hoso\\0,2\S,0,-0.1388
 43,-0.477008,0.011808\O,0,1.310132,0.256471,-0.03304\O,0,-1.181136,0.5
 48438,-0.014037\H,0,1.182021,1.213845,0.124681\\Version=EM64L-G09RevC.
 01\State=2-A\HF=-549.2211081\S2=0.755444\S2-1=0.\S2A=0.750021\RMSD=5.2
 87e-09\Dipole=0.488325,0.0501869,0.1125872\Quadrupole=-2.215394,2.1902
 422,0.0251517,2.5105354,0.2539958,0.3260379\PG=C01 [X(H1O2S1)]\\@


 FORGIVE MY NONSENSE AS I ALSO FORGIVE THOSE WHO THINK THEY TALK SENSE

                                                       -- ROBERT FROST
 Job cpu time:  0 days  0 hours  3 minutes 21.9 seconds.
 File lengths (MBytes):  RWF=     21 Int=      0 D2E=      0 Chk=      2 Scr=      1
 Normal termination of Gaussian 09 at Thu Aug 21 00:03:37 2025.
