 Entering Gaussian System, Link 0=g09
 Initial command:
 /soft/g09.c01/g09/l1.exe /scr/macias/389560.qcexmaster_vib6_-0.10/Gau-31088.inp -scrdir=/scr/macias/389560.qcexmaster_vib6_-0.10/
 Entering Link 1 = /soft/g09.c01/g09/l1.exe PID=     31092.
  
 Copyright (c) 1988,1990,1992,1993,1995,1998,2003,2009,2011,
            Gaussian, Inc.  All Rights Reserved.
  
 This is part of the Gaussian(R) 09 program.  It is based on
 the Gaussian(R) 03 system (copyright 2003, Gaussian, Inc.),
 the Gaussian(R) 98 system (copyright 1998, Gaussian, Inc.),
 the Gaussian(R) 94 system (copyright 1995, Gaussian, Inc.),
 the Gaussian 92(TM) system (copyright 1992, Gaussian, Inc.),
 the Gaussian 90(TM) system (copyright 1990, Gaussian, Inc.),
 the Gaussian 88(TM) system (copyright 1988, Gaussian, Inc.),
 the Gaussian 86(TM) system (copyright 1986, Carnegie Mellon
 University), and the Gaussian 82(TM) system (copyright 1983,
 Carnegie Mellon University). Gaussian is a federally registered
 trademark of Gaussian, Inc.
  
 This software contains proprietary and confidential information,
 including trade secrets, belonging to Gaussian, Inc.
  
 This software is provided under written license and may be
 used, copied, transmitted, or stored only in accord with that
 written license.
  
 The following legend is applicable only to US Government
 contracts under FAR:
  
                    RESTRICTED RIGHTS LEGEND
  
 Use, reproduction and disclosure by the US Government is
 subject to restrictions as set forth in subparagraphs (a)
 and (c) of the Commercial Computer Software - Restricted
 Rights clause in FAR 52.227-19.
  
 Gaussian, Inc.
 340 Quinnipiac St., Bldg. 40, Wallingford CT 06492
  
  
 ---------------------------------------------------------------
 Warning -- This program may not be used in any manner that
 competes with the business of Gaussian, Inc. or will provide
 assistance to any competitor of Gaussian, Inc.  The licensee
 of this program is prohibited from giving any competitor of
 Gaussian, Inc. access to this program.  By using this program,
 the user acknowledges that Gaussian, Inc. is engaged in the
 business of creating and licensing software in the field of
 computational chemistry and represents and warrants to the
 licensee that it is not a competitor of Gaussian, Inc. and that
 it will not use this program in any manner prohibited above.
 ---------------------------------------------------------------
  

 Cite this work as:
 Gaussian 09, Revision C.01,
 M. J. Frisch, G. W. Trucks, H. B. Schlegel, G. E. Scuseria, 
 M. A. Robb, J. R. Cheeseman, G. Scalmani, V. Barone, B. Mennucci, 
 G. A. Petersson, H. Nakatsuji, M. Caricato, X. Li, H. P. Hratchian, 
 A. F. Izmaylov, J. Bloino, G. Zheng, J. L. Sonnenberg, M. Hada, 
 M. Ehara, K. Toyota, R. Fukuda, J. Hasegawa, M. Ishida, T. Nakajima, 
 Y. Honda, O. Kitao, H. Nakai, T. Vreven, J. A. Montgomery, Jr., 
 J. E. Peralta, F. Ogliaro, M. Bearpark, J. J. Heyd, E. Brothers, 
 K. N. Kudin, V. N. Staroverov, T. Keith, R. Kobayashi, J. Normand, 
 K. Raghavachari, A. Rendell, J. C. Burant, S. S. Iyengar, J. Tomasi, 
 M. Cossi, N. Rega, J. M. Millam, M. Klene, J. E. Knox, J. B. Cross, 
 V. Bakken, C. Adamo, J. Jaramillo, R. Gomperts, R. E. Stratmann, 
 O. Yazyev, A. J. Austin, R. Cammi, C. Pomelli, J. W. Ochterski, 
 R. L. Martin, K. Morokuma, V. G. Zakrzewski, G. A. Voth, 
 P. Salvador, J. J. Dannenberg, S. Dapprich, A. D. Daniels, 
 O. Farkas, J. B. Foresman, J. V. Ortiz, J. Cioslowski, 
 and D. J. Fox, Gaussian, Inc., Wallingford CT, 2010.
 
  
 -----  Compilado por  -----------------------------------------
  
  Servicio de Calculo | Servicio de Informatica U. de Valencia
     calculo@uv.es    |  E-46100 Burjassot (Valencia) SPAIN
  
 ---------------------------------------------------------------
  
 ******************************************
 Gaussian 09:  EM64L-G09RevC.01 23-Sep-2011
                21-Aug-2025 
 ******************************************
 %chk=opt_freq.chk
 %nproc=6
 Will use up to    6 processors via shared memory.
 %mem=20GB
 Default route:  CacheSize=131072
 -----------------------
 #sp wB97XD/6-311+G(3df)
 -----------------------
 1/4=131072,38=1/1;
 2/4=131072,12=2,17=6,18=5,40=1/2;
 3/4=131072,5=4,6=6,7=16,11=2,16=1,25=1,30=1,74=-58/1,2,3;
 4/4=131072/1;
 5/4=131072,5=2,38=5/2;
 6/4=131072,7=2,8=2,9=2,10=2,28=1/1;
 99/4=131072,5=1,9=1/99;
 ---------------------
 Optimizacion del hoso
 ---------------------
 Charge =  0 Multiplicity = 2
 Symbolic Z-Matrix:
 S                    -0.13884  -0.47401   0.01631 
 O                     1.31013   0.25047  -0.04704 
 O                    -1.18564   0.54544  -0.02004 
 H                     1.21852   1.26385   0.29068 
 
                          Input orientation:                          
 ---------------------------------------------------------------------
 Center     Atomic      Atomic             Coordinates (Angstroms)
 Number     Number       Type             X           Y           Z
 ---------------------------------------------------------------------
      1         16           0       -0.138843   -0.474008    0.016308
      2          8           0        1.310132    0.250471   -0.047040
      3          8           0       -1.185636    0.545438   -0.020037
      4          1           0        1.218521    1.263845    0.290681
 ---------------------------------------------------------------------
                    Distance matrix (angstroms):
                    1          2          3          4
     1  S    0.000000
     2  O    1.621238   0.000000
     3  O    1.461632   2.513283   0.000000
     4  H    2.222127   1.072089   2.528364   0.000000
 Stoichiometry    HO2S(2)
 Framework group  C1[X(HO2S)]
 Deg. of freedom     6
 Full point group                 C1      NOp   1
 Largest Abelian subgroup         C1      NOp   1
 Largest concise Abelian subgroup C1      NOp   1
                         Standard orientation:                         
 ---------------------------------------------------------------------
 Center     Atomic      Atomic             Coordinates (Angstroms)
 Number     Number       Type             X           Y           Z
 ---------------------------------------------------------------------
      1         16           0       -0.139759   -0.474961    0.019628
      2          8           0        1.310909    0.245528   -0.050150
      3          8           0       -1.184130    0.546679   -0.024071
      4          1           0        1.221915    1.261715    0.279728
 ---------------------------------------------------------------------
 Rotational constants (GHZ):     34.5895943      9.6787232      7.5916512
 Standard basis: 6-311+G(3df) (5D, 7F)
 There are   128 symmetry adapted basis functions of A   symmetry.
 Integral buffers will be    131072 words long.
 Raffenetti 2 integral format.
 Two-electron integral symmetry is turned on.
   128 basis functions,   193 primitive gaussians,   146 cartesian basis functions
    17 alpha electrons       16 beta electrons
       nuclear repulsion energy       111.0301497706 Hartrees.
 NAtoms=    4 NActive=    4 NUniq=    4 SFac= 1.00D+00 NAtFMM=   60 NAOKFM=F Big=F
 Nuclear repulsion after empirical dispersion term =      111.0298867595 Hartrees.
 One-electron integrals computed using PRISM.
 NBasis=   128 RedAO= T  NBF=   128
 NBsUse=   128 1.00D-06 NBFU=   128
 Harris functional with IExCor= 4639 diagonalized for initial guess.
 ExpMin= 4.05D-02 ExpMax= 9.34D+04 ExpMxC= 3.17D+03 IAcc=2 IRadAn=         4 AccDes= 0.00D+00
 HarFok:  IExCor= 4639 AccDes= 0.00D+00 IRadAn=         4 IDoV= 1
 ScaDFX=  1.000000  1.000000  1.000000  1.000000
 FoFCou: FMM=F IPFlag=           0 FMFlag=      100000 FMFlg1=           0
         NFxFlg=           0 DoJE=T BraDBF=F KetDBF=T FulRan=T
         Omega=  0.000000  0.000000  1.000000  0.000000  0.000000 ICntrl=     500 IOpCl=  0
         NMat0=    1 NMatS0=    1 NMatT0=    0 NMatD0=    1 NMtDS0=    0 NMtDT0=    0
         I1Cent=           4 NGrid=           0.
 Petite list used in FoFCou.
 Initial guess orbital symmetries:
 Alpha Orbitals:
       Occupied  (A) (A) (A) (A) (A) (A) (A) (A) (A) (A) (A) (A)
                 (A) (A) (A) (A) (A)
       Virtual   (A) (A) (A) (A) (A) (A) (A) (A) (A) (A) (A) (A)
                 (A) (A) (A) (A) (A) (A) (A) (A) (A) (A) (A) (A)
                 (A) (A) (A) (A) (A) (A) (A) (A) (A) (A) (A) (A)
                 (A) (A) (A) (A) (A) (A) (A) (A) (A) (A) (A) (A)
                 (A) (A) (A) (A) (A) (A) (A) (A) (A) (A) (A) (A)
                 (A) (A) (A) (A) (A) (A) (A) (A) (A) (A) (A) (A)
                 (A) (A) (A) (A) (A) (A) (A) (A) (A) (A) (A) (A)
                 (A) (A) (A) (A) (A) (A) (A) (A) (A) (A) (A) (A)
                 (A) (A) (A) (A) (A) (A) (A) (A) (A) (A) (A) (A)
                 (A) (A) (A)
 Beta  Orbitals:
       Occupied  (A) (A) (A) (A) (A) (A) (A) (A) (A) (A) (A) (A)
                 (A) (A) (A) (A)
       Virtual   (A) (A) (A) (A) (A) (A) (A) (A) (A) (A) (A) (A)
                 (A) (A) (A) (A) (A) (A) (A) (A) (A) (A) (A) (A)
                 (A) (A) (A) (A) (A) (A) (A) (A) (A) (A) (A) (A)
                 (A) (A) (A) (A) (A) (A) (A) (A) (A) (A) (A) (A)
                 (A) (A) (A) (A) (A) (A) (A) (A) (A) (A) (A) (A)
                 (A) (A) (A) (A) (A) (A) (A) (A) (A) (A) (A) (A)
                 (A) (A) (A) (A) (A) (A) (A) (A) (A) (A) (A) (A)
                 (A) (A) (A) (A) (A) (A) (A) (A) (A) (A) (A) (A)
                 (A) (A) (A) (A) (A) (A) (A) (A) (A) (A) (A) (A)
                 (A) (A) (A) (A)
 The electronic state of the initial guess is 2-A.
 Initial guess <Sx>= 0.0000 <Sy>= 0.0000 <Sz>= 0.5000 <S**2>= 0.7500 S= 0.5000
 Requested convergence on RMS density matrix=1.00D-08 within 128 cycles.
 Requested convergence on MAX density matrix=1.00D-06.
 Requested convergence on             energy=1.00D-06.
 No special actions if energy rises.
 FoFJK:  IHMeth= 1 ICntrl=     0 DoSepK=T KAlg= 1 I1Cent= 0 FoldK=F
 FoFJK:  IHMeth= 1 ICntrl=     0 DoSepK=T KAlg= 1 I1Cent= 0 FoldK=F
 FoFJK:  IHMeth= 1 ICntrl=     0 DoSepK=T KAlg= 1 I1Cent= 0 FoldK=F
 FoFJK:  IHMeth= 1 ICntrl=     0 DoSepK=T KAlg= 1 I1Cent= 0 FoldK=F
 FoFJK:  IHMeth= 1 ICntrl=     0 DoSepK=T KAlg= 1 I1Cent= 0 FoldK=F
 FoFJK:  IHMeth= 1 ICntrl=     0 DoSepK=T KAlg= 1 I1Cent= 0 FoldK=F
 FoFJK:  IHMeth= 1 ICntrl=     0 DoSepK=T KAlg= 1 I1Cent= 0 FoldK=F
 FoFJK:  IHMeth= 1 ICntrl=     0 DoSepK=T KAlg= 1 I1Cent= 0 FoldK=F
 FoFJK:  IHMeth= 1 ICntrl=     0 DoSepK=T KAlg= 1 I1Cent= 0 FoldK=F
 FoFJK:  IHMeth= 1 ICntrl=     0 DoSepK=T KAlg= 1 I1Cent= 0 FoldK=F
 FoFJK:  IHMeth= 1 ICntrl=     0 DoSepK=T KAlg= 1 I1Cent= 0 FoldK=F
 FoFJK:  IHMeth= 1 ICntrl=     0 DoSepK=T KAlg= 1 I1Cent= 0 FoldK=F
 FoFJK:  IHMeth= 1 ICntrl=     0 DoSepK=T KAlg= 1 I1Cent= 0 FoldK=F
 FoFJK:  IHMeth= 1 ICntrl=     0 DoSepK=T KAlg= 1 I1Cent= 0 FoldK=F
 FoFJK:  IHMeth= 1 ICntrl=     0 DoSepK=T KAlg= 1 I1Cent= 0 FoldK=F
 SCF Done:  E(UwB97XD) =  -549.212993822     A.U. after   15 cycles
             Convg  =    0.8101D-08             -V/T =  2.0019
 <Sx>= 0.0000 <Sy>= 0.0000 <Sz>= 0.5000 <S**2>= 0.7555 S= 0.5027
 <L.S>= 0.000000000000E+00
 Annihilation of the first spin contaminant:
 S**2 before annihilation     0.7555,   after     0.7500

 **********************************************************************

            Population analysis using the SCF density.

 **********************************************************************

 Orbital symmetries:
 Alpha Orbitals:
       Occupied  (A) (A) (A) (A) (A) (A) (A) (A) (A) (A) (A) (A)
                 (A) (A) (A) (A) (A)
       Virtual   (A) (A) (A) (A) (A) (A) (A) (A) (A) (A) (A) (A)
                 (A) (A) (A) (A) (A) (A) (A) (A) (A) (A) (A) (A)
                 (A) (A) (A) (A) (A) (A) (A) (A) (A) (A) (A) (A)
                 (A) (A) (A) (A) (A) (A) (A) (A) (A) (A) (A) (A)
                 (A) (A) (A) (A) (A) (A) (A) (A) (A) (A) (A) (A)
                 (A) (A) (A) (A) (A) (A) (A) (A) (A) (A) (A) (A)
                 (A) (A) (A) (A) (A) (A) (A) (A) (A) (A) (A) (A)
                 (A) (A) (A) (A) (A) (A) (A) (A) (A) (A) (A) (A)
                 (A) (A) (A) (A) (A) (A) (A) (A) (A) (A) (A) (A)
                 (A) (A) (A)
 Beta  Orbitals:
       Occupied  (A) (A) (A) (A) (A) (A) (A) (A) (A) (A) (A) (A)
                 (A) (A) (A) (A)
       Virtual   (A) (A) (A) (A) (A) (A) (A) (A) (A) (A) (A) (A)
                 (A) (A) (A) (A) (A) (A) (A) (A) (A) (A) (A) (A)
                 (A) (A) (A) (A) (A) (A) (A) (A) (A) (A) (A) (A)
                 (A) (A) (A) (A) (A) (A) (A) (A) (A) (A) (A) (A)
                 (A) (A) (A) (A) (A) (A) (A) (A) (A) (A) (A) (A)
                 (A) (A) (A) (A) (A) (A) (A) (A) (A) (A) (A) (A)
                 (A) (A) (A) (A) (A) (A) (A) (A) (A) (A) (A) (A)
                 (A) (A) (A) (A) (A) (A) (A) (A) (A) (A) (A) (A)
                 (A) (A) (A) (A) (A) (A) (A) (A) (A) (A) (A) (A)
                 (A) (A) (A) (A)
 The electronic state is 2-A.
 Alpha  occ. eigenvalues --  -89.14708 -19.32446 -19.28135  -8.17459  -6.12385
 Alpha  occ. eigenvalues --   -6.12157  -6.11798  -1.21605  -1.13919  -0.78709
 Alpha  occ. eigenvalues --   -0.62258  -0.57165  -0.56342  -0.50148  -0.46841
 Alpha  occ. eigenvalues --   -0.42292  -0.30669
 Alpha virt. eigenvalues --    0.04081   0.06915   0.07719   0.09378   0.11191
 Alpha virt. eigenvalues --    0.12865   0.17747   0.22229   0.24523   0.25128
 Alpha virt. eigenvalues --    0.26514   0.28110   0.30225   0.32501   0.33011
 Alpha virt. eigenvalues --    0.35537   0.36529   0.37951   0.39184   0.40458
 Alpha virt. eigenvalues --    0.41154   0.50797   0.51476   0.68509   0.78479
 Alpha virt. eigenvalues --    0.81426   0.87341   0.88081   0.93865   0.96353
 Alpha virt. eigenvalues --    0.97180   0.97815   1.00403   1.02270   1.05735
 Alpha virt. eigenvalues --    1.09257   1.10313   1.12541   1.14208   1.17689
 Alpha virt. eigenvalues --    1.22580   1.29192   1.33645   1.38307   1.40025
 Alpha virt. eigenvalues --    1.41545   1.67018   1.68417   1.74667   1.80860
 Alpha virt. eigenvalues --    1.92601   2.02111   2.08815   2.09010   2.13996
 Alpha virt. eigenvalues --    2.20724   2.31881   2.36873   2.45737   3.38244
 Alpha virt. eigenvalues --    3.42599   3.45454   3.48002   3.50256   3.54944
 Alpha virt. eigenvalues --    3.56668   3.58482   3.68651   3.70752   4.53575
 Alpha virt. eigenvalues --    4.57578   4.61721   4.71679   4.91130   5.00634
 Alpha virt. eigenvalues --    5.03693   5.04635   5.04915   5.06251   5.09281
 Alpha virt. eigenvalues --    5.10038   5.10944   5.17437   5.23519   5.25091
 Alpha virt. eigenvalues --    5.33811   5.46120   5.52742   5.55233   5.63312
 Alpha virt. eigenvalues --    5.68703   5.85438   5.99146   6.59026   8.78169
 Alpha virt. eigenvalues --   14.32514  14.35760  14.37334  14.39151  14.40933
 Alpha virt. eigenvalues --   14.43319  14.46182  14.48620  14.61997  14.71099
 Alpha virt. eigenvalues --   17.36398  17.61792  17.90404  50.02060  50.11295
 Alpha virt. eigenvalues --  189.82799
  Beta  occ. eigenvalues --  -89.14322 -19.32194 -19.27260  -8.17115  -6.12157
  Beta  occ. eigenvalues --   -6.11589  -6.10918  -1.20343  -1.12560  -0.76301
  Beta  occ. eigenvalues --   -0.61034  -0.56342  -0.52896  -0.48176  -0.43152
  Beta  occ. eigenvalues --   -0.41098
  Beta virt. eigenvalues --   -0.03676   0.04469   0.07258   0.08149   0.09984
  Beta virt. eigenvalues --    0.12376   0.13256   0.18312   0.22414   0.24859
  Beta virt. eigenvalues --    0.25300   0.27005   0.28492   0.30531   0.32643
  Beta virt. eigenvalues --    0.34150   0.35819   0.36913   0.38737   0.40524
  Beta virt. eigenvalues --    0.41232   0.41648   0.51179   0.51909   0.69022
  Beta virt. eigenvalues --    0.79016   0.81730   0.87893   0.88838   0.94483
  Beta virt. eigenvalues --    0.96765   0.98027   0.98844   1.01422   1.02922
  Beta virt. eigenvalues --    1.06492   1.10199   1.12245   1.12975   1.14601
  Beta virt. eigenvalues --    1.18557   1.23866   1.29645   1.34966   1.39106
  Beta virt. eigenvalues --    1.40437   1.41886   1.70176   1.70367   1.76293
  Beta virt. eigenvalues --    1.82424   1.93396   2.03527   2.09492   2.11353
  Beta virt. eigenvalues --    2.14414   2.21210   2.32371   2.37818   2.46142
  Beta virt. eigenvalues --    3.39172   3.44134   3.47635   3.49084   3.51644
  Beta virt. eigenvalues --    3.56300   3.57709   3.59708   3.69129   3.71948
  Beta virt. eigenvalues --    4.54117   4.57742   4.62585   4.72163   4.91715
  Beta virt. eigenvalues --    5.01252   5.04630   5.05345   5.05562   5.07218
  Beta virt. eigenvalues --    5.11902   5.12583   5.13489   5.18216   5.24523
  Beta virt. eigenvalues --    5.26354   5.34389   5.46633   5.53327   5.56026
  Beta virt. eigenvalues --    5.63781   5.69875   5.87124   5.99674   6.59435
  Beta virt. eigenvalues --    8.78528  14.33805  14.38039  14.40232  14.41196
  Beta virt. eigenvalues --   14.43165  14.44313  14.49179  14.50160  14.62685
  Beta virt. eigenvalues --   14.73090  17.37790  17.62082  17.90726  50.02300
  Beta virt. eigenvalues --   50.12070 189.83103
          Condensed to atoms (all electrons):
              1          2          3          4
     1  S   15.352474  -0.000757   0.140188   0.010793
     2  O   -0.000757   8.381991   0.006283   0.199788
     3  O    0.140188   0.006283   8.241067   0.000195
     4  H    0.010793   0.199788   0.000195   0.311489
 Mulliken atomic charges:
              1
     1  S    0.497302
     2  O   -0.587304
     3  O   -0.387733
     4  H    0.477735
 Sum of Mulliken atomic charges =   0.00000
 Mulliken charges with hydrogens summed into heavy atoms:
              1
     1  S    0.497302
     2  O   -0.109569
     3  O   -0.387733
 Sum of Mulliken charges with hydrogens summed into heavy atoms =   0.00000
          Atomic-Atomic Spin Densities.
              1          2          3          4
     1  S    0.946021  -0.105403  -0.197142  -0.001824
     2  O   -0.105403   0.151494   0.019139  -0.003873
     3  O   -0.197142   0.019139   0.472931  -0.000275
     4  H   -0.001824  -0.003873  -0.000275   0.008312
 Mulliken atomic spin densities:
              1
     1  S    0.641651
     2  O    0.061357
     3  O    0.294652
     4  H    0.002340
 Sum of Mulliken atomic spin densities =   1.00000
 Electronic spatial extent (au):  <R**2>=            177.7228
 Charge=              0.0000 electrons
 Dipole moment (field-independent basis, Debye):
    X=              1.3462    Y=              0.2349    Z=              0.5779  Tot=              1.4837
 Quadrupole moment (field-independent basis, Debye-Ang):
   XX=            -26.6823   YY=            -20.7843   ZZ=            -23.6834
   XY=              3.5951   XZ=              0.7206   YZ=              0.9411
 Traceless Quadrupole moment (field-independent basis, Debye-Ang):
   XX=             -2.9656   YY=              2.9324   ZZ=              0.0333
   XY=              3.5951   XZ=              0.7206   YZ=              0.9411
 Octapole moment (field-independent basis, Debye-Ang**2):
  XXX=              1.3906  YYY=              5.8983  ZZZ=             -0.0637  XYY=              5.0084
  XXY=              1.2560  XXZ=              0.8816  XZZ=              0.0818  YZZ=              1.1946
  YYZ=              1.1720  XYZ=              1.1246
 Hexadecapole moment (field-independent basis, Debye-Ang**3):
 XXXX=           -141.6372 YYYY=            -51.4046 ZZZZ=            -25.2088 XXXY=              6.1676
 XXXZ=              1.1570 YYYX=              7.0856 YYYZ=              1.7238 ZZZX=              0.3481
 ZZZY=              0.5999 XXYY=            -26.3483 XXZZ=            -27.0043 YYZZ=            -14.0186
 XXYZ=              1.5283 YYXZ=              1.4359 ZZXY=              0.4431
 N-N= 1.110298867595D+02 E-N=-2.280682232895D+03  KE= 8.208134308095D+02
                          Isotropic Fermi Contact Couplings
        Atom                 a.u.       MegaHertz       Gauss      10(-4) cm-1
     1  S(33)              0.10409      35.75382      12.75785      11.92619
     2  O(17)              0.02286     -13.86059      -4.94580      -4.62339
     3  O(17)              0.05158     -31.27026     -11.15801     -10.43064
     4  H(1)               0.00111       4.95419       1.76778       1.65254
 --------------------------------------------------------
       Center         ----  Spin Dipole Couplings  ----
                      3XX-RR        3YY-RR        3ZZ-RR
 --------------------------------------------------------
     1   Atom       -1.507494     -1.611532      3.119025
     2   Atom       -0.245414     -0.203810      0.449225
     3   Atom       -0.763707     -0.764366      1.528073
     4   Atom       -0.006751      0.017537     -0.010786
 --------------------------------------------------------
                        XY            XZ            YZ
 --------------------------------------------------------
     1   Atom       -0.003099     -0.058125      0.208804
     2   Atom        0.007934      0.016574     -0.127382
     3   Atom        0.005727      0.077859      0.043615
     4   Atom        0.005469      0.001198      0.004622
 --------------------------------------------------------


 ---------------------------------------------------------------------------------
              Anisotropic Spin Dipole Couplings in Principal Axis System
 ---------------------------------------------------------------------------------

       Atom             a.u.   MegaHertz   Gauss  10(-4) cm-1        Axes

              Baa    -1.6207   -66.449   -23.710   -22.165  0.0048  0.9990 -0.0440
     1 S(33)  Bbb    -1.5082   -61.836   -22.065   -20.626  0.9999 -0.0042  0.0128
              Bcc     3.1290   128.284    45.775    42.791 -0.0126  0.0440  0.9990
 
              Baa    -0.2508    18.150     6.476     6.054  0.9045 -0.4153 -0.0970
     2 O(17)  Bbb    -0.2227    16.112     5.749     5.374  0.4260  0.8908  0.1584
              Bcc     0.4735   -34.262   -12.226   -11.429  0.0206 -0.1846  0.9826
 
              Baa    -0.7701    55.721    19.883    18.586  0.7530 -0.6579 -0.0130
     3 O(17)  Bbb    -0.7615    55.101    19.661    18.380  0.6572  0.7529 -0.0367
              Bcc     1.5315  -110.822   -39.544   -36.966  0.0339  0.0191  0.9992
 
              Baa    -0.0115    -6.162    -2.199    -2.055 -0.0862 -0.1405  0.9863
     4 H(1)   Bbb    -0.0079    -4.223    -1.507    -1.409  0.9742 -0.2191  0.0539
              Bcc     0.0195    10.385     3.706     3.464  0.2086  0.9655  0.1558
 

 ---------------------------------------------------------------------------------

 1\1\ CPUSERV-QCEXNOD01\SP\UwB97XD\6-311+G(3df)\H1O2S1(2)\ROOT\21-Aug-2
 025\0\\#sp wB97XD/6-311+G(3df)\\Optimizacion del hoso\\0,2\S,0,-0.1388
 43,-0.474008,0.016308\O,0,1.310132,0.250471,-0.04704\O,0,-1.185636,0.5
 45438,-0.020037\H,0,1.218521,1.263845,0.290681\\Version=EM64L-G09RevC.
 01\State=2-A\HF=-549.2129938\S2=0.755455\S2-1=0.\S2A=0.750021\RMSD=8.1
 01e-09\Dipole=0.529289,0.0919045,0.2283892\Quadrupole=-2.2182552,2.181
 8848,0.0363704,2.6576933,0.5535522,0.7192307\PG=C01 [X(H1O2S1)]\\@


 "MATHEMATICS IS THE ART OF GIVING THE SAME NAME
 TO DIFFERENT THINGS."
                    - H. POINCARE
 Job cpu time:  0 days  0 hours  3 minutes  3.3 seconds.
 File lengths (MBytes):  RWF=     21 Int=      0 D2E=      0 Chk=      2 Scr=      1
 Normal termination of Gaussian 09 at Thu Aug 21 00:36:51 2025.
