 Entering Gaussian System, Link 0=g09
 Initial command:
 /soft/g09.c01/g09/l1.exe /scr/macias/389578.qcexmaster_vib2_-0.10/Gau-828.inp -scrdir=/scr/macias/389578.qcexmaster_vib2_-0.10/
 Entering Link 1 = /soft/g09.c01/g09/l1.exe PID=       839.
  
 Copyright (c) 1988,1990,1992,1993,1995,1998,2003,2009,2011,
            Gaussian, Inc.  All Rights Reserved.
  
 This is part of the Gaussian(R) 09 program.  It is based on
 the Gaussian(R) 03 system (copyright 2003, Gaussian, Inc.),
 the Gaussian(R) 98 system (copyright 1998, Gaussian, Inc.),
 the Gaussian(R) 94 system (copyright 1995, Gaussian, Inc.),
 the Gaussian 92(TM) system (copyright 1992, Gaussian, Inc.),
 the Gaussian 90(TM) system (copyright 1990, Gaussian, Inc.),
 the Gaussian 88(TM) system (copyright 1988, Gaussian, Inc.),
 the Gaussian 86(TM) system (copyright 1986, Carnegie Mellon
 University), and the Gaussian 82(TM) system (copyright 1983,
 Carnegie Mellon University). Gaussian is a federally registered
 trademark of Gaussian, Inc.
  
 This software contains proprietary and confidential information,
 including trade secrets, belonging to Gaussian, Inc.
  
 This software is provided under written license and may be
 used, copied, transmitted, or stored only in accord with that
 written license.
  
 The following legend is applicable only to US Government
 contracts under FAR:
  
                    RESTRICTED RIGHTS LEGEND
  
 Use, reproduction and disclosure by the US Government is
 subject to restrictions as set forth in subparagraphs (a)
 and (c) of the Commercial Computer Software - Restricted
 Rights clause in FAR 52.227-19.
  
 Gaussian, Inc.
 340 Quinnipiac St., Bldg. 40, Wallingford CT 06492
  
  
 ---------------------------------------------------------------
 Warning -- This program may not be used in any manner that
 competes with the business of Gaussian, Inc. or will provide
 assistance to any competitor of Gaussian, Inc.  The licensee
 of this program is prohibited from giving any competitor of
 Gaussian, Inc. access to this program.  By using this program,
 the user acknowledges that Gaussian, Inc. is engaged in the
 business of creating and licensing software in the field of
 computational chemistry and represents and warrants to the
 licensee that it is not a competitor of Gaussian, Inc. and that
 it will not use this program in any manner prohibited above.
 ---------------------------------------------------------------
  

 Cite this work as:
 Gaussian 09, Revision C.01,
 M. J. Frisch, G. W. Trucks, H. B. Schlegel, G. E. Scuseria, 
 M. A. Robb, J. R. Cheeseman, G. Scalmani, V. Barone, B. Mennucci, 
 G. A. Petersson, H. Nakatsuji, M. Caricato, X. Li, H. P. Hratchian, 
 A. F. Izmaylov, J. Bloino, G. Zheng, J. L. Sonnenberg, M. Hada, 
 M. Ehara, K. Toyota, R. Fukuda, J. Hasegawa, M. Ishida, T. Nakajima, 
 Y. Honda, O. Kitao, H. Nakai, T. Vreven, J. A. Montgomery, Jr., 
 J. E. Peralta, F. Ogliaro, M. Bearpark, J. J. Heyd, E. Brothers, 
 K. N. Kudin, V. N. Staroverov, T. Keith, R. Kobayashi, J. Normand, 
 K. Raghavachari, A. Rendell, J. C. Burant, S. S. Iyengar, J. Tomasi, 
 M. Cossi, N. Rega, J. M. Millam, M. Klene, J. E. Knox, J. B. Cross, 
 V. Bakken, C. Adamo, J. Jaramillo, R. Gomperts, R. E. Stratmann, 
 O. Yazyev, A. J. Austin, R. Cammi, C. Pomelli, J. W. Ochterski, 
 R. L. Martin, K. Morokuma, V. G. Zakrzewski, G. A. Voth, 
 P. Salvador, J. J. Dannenberg, S. Dapprich, A. D. Daniels, 
 O. Farkas, J. B. Foresman, J. V. Ortiz, J. Cioslowski, 
 and D. J. Fox, Gaussian, Inc., Wallingford CT, 2010.
 
  
 -----  Compilado por  -----------------------------------------
  
  Servicio de Calculo | Servicio de Informatica U. de Valencia
     calculo@uv.es    |  E-46100 Burjassot (Valencia) SPAIN
  
 ---------------------------------------------------------------
  
 ******************************************
 Gaussian 09:  EM64L-G09RevC.01 23-Sep-2011
                21-Aug-2025 
 ******************************************
 %chk=opt_freq.chk
 %nproc=6
 Will use up to    6 processors via shared memory.
 %mem=20GB
 Default route:  CacheSize=131072
 -----------------------
 #sp wB97XD/6-311+G(3df)
 -----------------------
 1/4=131072,38=1/1;
 2/4=131072,12=2,17=6,18=5,40=1/2;
 3/4=131072,5=4,6=6,7=16,11=2,16=1,25=1,30=1,74=-58/1,2,3;
 4/4=131072/1;
 5/4=131072,5=2,38=5/2;
 6/4=131072,7=2,8=2,9=2,10=2,28=1/1;
 99/4=131072,5=1,9=1/99;
 ---------------------
 Optimizacion del hoso
 ---------------------
 Charge =  0 Multiplicity = 2
 Symbolic Z-Matrix:
 S                    -0.13984  -0.49201   0.01931 
 O                     1.28213   0.27547  -0.05004 
 O                    -1.15164   0.56344  -0.02304 
 H                     1.15552   1.16685   0.30568 
 
                          Input orientation:                          
 ---------------------------------------------------------------------
 Center     Atomic      Atomic             Coordinates (Angstroms)
 Number     Number       Type             X           Y           Z
 ---------------------------------------------------------------------
      1         16           0       -0.139843   -0.492008    0.019308
      2          8           0        1.282132    0.275471   -0.050040
      3          8           0       -1.151636    0.563438   -0.023037
      4          1           0        1.155521    1.166845    0.305681
 ---------------------------------------------------------------------
                    Distance matrix (angstroms):
                    1          2          3          4
     1  S    0.000000
     2  O    1.617358   0.000000
     3  O    1.462698   2.450894   0.000000
     4  H    2.124093   0.968047   2.407307   0.000000
 Stoichiometry    HO2S(2)
 Framework group  C1[X(HO2S)]
 Deg. of freedom     6
 Full point group                 C1      NOp   1
 Largest Abelian subgroup         C1      NOp   1
 Largest concise Abelian subgroup C1      NOp   1
                         Standard orientation:                         
 ---------------------------------------------------------------------
 Center     Atomic      Atomic             Coordinates (Angstroms)
 Number     Number       Type             X           Y           Z
 ---------------------------------------------------------------------
      1         16           0       -0.141102   -0.491523    0.017885
      2          8           0        1.284603    0.269037   -0.051097
      3          8           0       -1.147711    0.568931   -0.022885
      4          1           0        1.162501    1.160614    0.305691
 ---------------------------------------------------------------------
 Rotational constants (GHZ):     32.6191259     10.1807891      7.7929960
 Standard basis: 6-311+G(3df) (5D, 7F)
 There are   128 symmetry adapted basis functions of A   symmetry.
 Integral buffers will be    131072 words long.
 Raffenetti 2 integral format.
 Two-electron integral symmetry is turned on.
   128 basis functions,   193 primitive gaussians,   146 cartesian basis functions
    17 alpha electrons       16 beta electrons
       nuclear repulsion energy       112.1240733886 Hartrees.
 NAtoms=    4 NActive=    4 NUniq=    4 SFac= 1.00D+00 NAtFMM=   60 NAOKFM=F Big=F
 Nuclear repulsion after empirical dispersion term =      112.1238503286 Hartrees.
 One-electron integrals computed using PRISM.
 NBasis=   128 RedAO= T  NBF=   128
 NBsUse=   128 1.00D-06 NBFU=   128
 Harris functional with IExCor= 4639 diagonalized for initial guess.
 ExpMin= 4.05D-02 ExpMax= 9.34D+04 ExpMxC= 3.17D+03 IAcc=2 IRadAn=         4 AccDes= 0.00D+00
 HarFok:  IExCor= 4639 AccDes= 0.00D+00 IRadAn=         4 IDoV= 1
 ScaDFX=  1.000000  1.000000  1.000000  1.000000
 FoFCou: FMM=F IPFlag=           0 FMFlag=      100000 FMFlg1=           0
         NFxFlg=           0 DoJE=T BraDBF=F KetDBF=T FulRan=T
         Omega=  0.000000  0.000000  1.000000  0.000000  0.000000 ICntrl=     500 IOpCl=  0
         NMat0=    1 NMatS0=    1 NMatT0=    0 NMatD0=    1 NMtDS0=    0 NMtDT0=    0
         I1Cent=           4 NGrid=           0.
 Petite list used in FoFCou.
 Initial guess orbital symmetries:
 Alpha Orbitals:
       Occupied  (A) (A) (A) (A) (A) (A) (A) (A) (A) (A) (A) (A)
                 (A) (A) (A) (A) (A)
       Virtual   (A) (A) (A) (A) (A) (A) (A) (A) (A) (A) (A) (A)
                 (A) (A) (A) (A) (A) (A) (A) (A) (A) (A) (A) (A)
                 (A) (A) (A) (A) (A) (A) (A) (A) (A) (A) (A) (A)
                 (A) (A) (A) (A) (A) (A) (A) (A) (A) (A) (A) (A)
                 (A) (A) (A) (A) (A) (A) (A) (A) (A) (A) (A) (A)
                 (A) (A) (A) (A) (A) (A) (A) (A) (A) (A) (A) (A)
                 (A) (A) (A) (A) (A) (A) (A) (A) (A) (A) (A) (A)
                 (A) (A) (A) (A) (A) (A) (A) (A) (A) (A) (A) (A)
                 (A) (A) (A) (A) (A) (A) (A) (A) (A) (A) (A) (A)
                 (A) (A) (A)
 Beta  Orbitals:
       Occupied  (A) (A) (A) (A) (A) (A) (A) (A) (A) (A) (A) (A)
                 (A) (A) (A) (A)
       Virtual   (A) (A) (A) (A) (A) (A) (A) (A) (A) (A) (A) (A)
                 (A) (A) (A) (A) (A) (A) (A) (A) (A) (A) (A) (A)
                 (A) (A) (A) (A) (A) (A) (A) (A) (A) (A) (A) (A)
                 (A) (A) (A) (A) (A) (A) (A) (A) (A) (A) (A) (A)
                 (A) (A) (A) (A) (A) (A) (A) (A) (A) (A) (A) (A)
                 (A) (A) (A) (A) (A) (A) (A) (A) (A) (A) (A) (A)
                 (A) (A) (A) (A) (A) (A) (A) (A) (A) (A) (A) (A)
                 (A) (A) (A) (A) (A) (A) (A) (A) (A) (A) (A) (A)
                 (A) (A) (A) (A) (A) (A) (A) (A) (A) (A) (A) (A)
                 (A) (A) (A) (A)
 The electronic state of the initial guess is 2-A.
 Initial guess <Sx>= 0.0000 <Sy>= 0.0000 <Sz>= 0.5000 <S**2>= 0.7500 S= 0.5000
 Requested convergence on RMS density matrix=1.00D-08 within 128 cycles.
 Requested convergence on MAX density matrix=1.00D-06.
 Requested convergence on             energy=1.00D-06.
 No special actions if energy rises.
 FoFJK:  IHMeth= 1 ICntrl=     0 DoSepK=T KAlg= 1 I1Cent= 0 FoldK=F
 FoFJK:  IHMeth= 1 ICntrl=     0 DoSepK=T KAlg= 1 I1Cent= 0 FoldK=F
 FoFJK:  IHMeth= 1 ICntrl=     0 DoSepK=T KAlg= 1 I1Cent= 0 FoldK=F
 FoFJK:  IHMeth= 1 ICntrl=     0 DoSepK=T KAlg= 1 I1Cent= 0 FoldK=F
 FoFJK:  IHMeth= 1 ICntrl=     0 DoSepK=T KAlg= 1 I1Cent= 0 FoldK=F
 FoFJK:  IHMeth= 1 ICntrl=     0 DoSepK=T KAlg= 1 I1Cent= 0 FoldK=F
 FoFJK:  IHMeth= 1 ICntrl=     0 DoSepK=T KAlg= 1 I1Cent= 0 FoldK=F
 FoFJK:  IHMeth= 1 ICntrl=     0 DoSepK=T KAlg= 1 I1Cent= 0 FoldK=F
 FoFJK:  IHMeth= 1 ICntrl=     0 DoSepK=T KAlg= 1 I1Cent= 0 FoldK=F
 FoFJK:  IHMeth= 1 ICntrl=     0 DoSepK=T KAlg= 1 I1Cent= 0 FoldK=F
 FoFJK:  IHMeth= 1 ICntrl=     0 DoSepK=T KAlg= 1 I1Cent= 0 FoldK=F
 FoFJK:  IHMeth= 1 ICntrl=     0 DoSepK=T KAlg= 1 I1Cent= 0 FoldK=F
 FoFJK:  IHMeth= 1 ICntrl=     0 DoSepK=T KAlg= 1 I1Cent= 0 FoldK=F
 FoFJK:  IHMeth= 1 ICntrl=     0 DoSepK=T KAlg= 1 I1Cent= 0 FoldK=F
 FoFJK:  IHMeth= 1 ICntrl=     0 DoSepK=T KAlg= 1 I1Cent= 0 FoldK=F
 SCF Done:  E(UwB97XD) =  -549.220542042     A.U. after   15 cycles
             Convg  =    0.7540D-08             -V/T =  2.0016
 <Sx>= 0.0000 <Sy>= 0.0000 <Sz>= 0.5000 <S**2>= 0.7554 S= 0.5027
 <L.S>= 0.000000000000E+00
 Annihilation of the first spin contaminant:
 S**2 before annihilation     0.7554,   after     0.7500

 **********************************************************************

            Population analysis using the SCF density.

 **********************************************************************

 Orbital symmetries:
 Alpha Orbitals:
       Occupied  (A) (A) (A) (A) (A) (A) (A) (A) (A) (A) (A) (A)
                 (A) (A) (A) (A) (A)
       Virtual   (A) (A) (A) (A) (A) (A) (A) (A) (A) (A) (A) (A)
                 (A) (A) (A) (A) (A) (A) (A) (A) (A) (A) (A) (A)
                 (A) (A) (A) (A) (A) (A) (A) (A) (A) (A) (A) (A)
                 (A) (A) (A) (A) (A) (A) (A) (A) (A) (A) (A) (A)
                 (A) (A) (A) (A) (A) (A) (A) (A) (A) (A) (A) (A)
                 (A) (A) (A) (A) (A) (A) (A) (A) (A) (A) (A) (A)
                 (A) (A) (A) (A) (A) (A) (A) (A) (A) (A) (A) (A)
                 (A) (A) (A) (A) (A) (A) (A) (A) (A) (A) (A) (A)
                 (A) (A) (A) (A) (A) (A) (A) (A) (A) (A) (A) (A)
                 (A) (A) (A)
 Beta  Orbitals:
       Occupied  (A) (A) (A) (A) (A) (A) (A) (A) (A) (A) (A) (A)
                 (A) (A) (A) (A)
       Virtual   (A) (A) (A) (A) (A) (A) (A) (A) (A) (A) (A) (A)
                 (A) (A) (A) (A) (A) (A) (A) (A) (A) (A) (A) (A)
                 (A) (A) (A) (A) (A) (A) (A) (A) (A) (A) (A) (A)
                 (A) (A) (A) (A) (A) (A) (A) (A) (A) (A) (A) (A)
                 (A) (A) (A) (A) (A) (A) (A) (A) (A) (A) (A) (A)
                 (A) (A) (A) (A) (A) (A) (A) (A) (A) (A) (A) (A)
                 (A) (A) (A) (A) (A) (A) (A) (A) (A) (A) (A) (A)
                 (A) (A) (A) (A) (A) (A) (A) (A) (A) (A) (A) (A)
                 (A) (A) (A) (A) (A) (A) (A) (A) (A) (A) (A) (A)
                 (A) (A) (A) (A)
 The electronic state is 2-A.
 Alpha  occ. eigenvalues --  -89.15001 -19.31654 -19.28140  -8.17767  -6.12698
 Alpha  occ. eigenvalues --   -6.12462  -6.12101  -1.22801  -1.14627  -0.79963
 Alpha  occ. eigenvalues --   -0.63284  -0.57601  -0.56641  -0.50622  -0.46859
 Alpha  occ. eigenvalues --   -0.42331  -0.31108
 Alpha virt. eigenvalues --    0.04837   0.06613   0.07477   0.09333   0.12031
 Alpha virt. eigenvalues --    0.13476   0.19181   0.22475   0.24673   0.24995
 Alpha virt. eigenvalues --    0.26252   0.28068   0.30131   0.32531   0.32992
 Alpha virt. eigenvalues --    0.35434   0.36326   0.38205   0.39317   0.41056
 Alpha virt. eigenvalues --    0.41699   0.49584   0.56839   0.68547   0.77131
 Alpha virt. eigenvalues --    0.81187   0.86159   0.88840   0.93430   0.95602
 Alpha virt. eigenvalues --    0.95934   0.97280   1.00009   1.02244   1.05997
 Alpha virt. eigenvalues --    1.08824   1.10296   1.13076   1.13710   1.17917
 Alpha virt. eigenvalues --    1.22512   1.30946   1.33103   1.37707   1.39540
 Alpha virt. eigenvalues --    1.43376   1.66843   1.68332   1.74229   1.81702
 Alpha virt. eigenvalues --    1.93226   2.02026   2.08386   2.08543   2.14513
 Alpha virt. eigenvalues --    2.20049   2.29897   2.36512   2.44924   3.37726
 Alpha virt. eigenvalues --    3.43447   3.45389   3.47685   3.50770   3.55438
 Alpha virt. eigenvalues --    3.56397   3.63061   3.70123   3.71567   4.53271
 Alpha virt. eigenvalues --    4.56689   4.61461   4.71411   4.90750   4.98809
 Alpha virt. eigenvalues --    5.02863   5.03476   5.03854   5.06956   5.09337
 Alpha virt. eigenvalues --    5.10070   5.11179   5.17388   5.24492   5.25770
 Alpha virt. eigenvalues --    5.42429   5.47224   5.54966   5.57763   5.67582
 Alpha virt. eigenvalues --    5.70985   5.85160   6.00451   6.63046   8.77621
 Alpha virt. eigenvalues --   14.32593  14.36312  14.37409  14.39167  14.42006
 Alpha virt. eigenvalues --   14.45537  14.46829  14.49314  14.62933  14.71011
 Alpha virt. eigenvalues --   17.36196  17.63498  17.89202  50.03067  50.10890
 Alpha virt. eigenvalues --  189.83062
  Beta  occ. eigenvalues --  -89.14618 -19.31427 -19.27254  -8.17424  -6.12470
  Beta  occ. eigenvalues --   -6.11893  -6.11231  -1.21701  -1.13153  -0.77661
  Beta  occ. eigenvalues --   -0.61934  -0.56778  -0.53379  -0.48449  -0.43257
  Beta  occ. eigenvalues --   -0.41182
  Beta virt. eigenvalues --   -0.04045   0.05344   0.06948   0.07927   0.09955
  Beta virt. eigenvalues --    0.12717   0.14478   0.19548   0.22702   0.24994
  Beta virt. eigenvalues --    0.25193   0.26636   0.28487   0.30443   0.32720
  Beta virt. eigenvalues --    0.34116   0.35679   0.37001   0.38755   0.40599
  Beta virt. eigenvalues --    0.41676   0.42338   0.50228   0.57072   0.69060
  Beta virt. eigenvalues --    0.77645   0.81424   0.86549   0.89750   0.93998
  Beta virt. eigenvalues --    0.96088   0.97016   0.98150   1.00914   1.02847
  Beta virt. eigenvalues --    1.06670   1.09804   1.12257   1.13758   1.14069
  Beta virt. eigenvalues --    1.18727   1.23684   1.31494   1.34308   1.38527
  Beta virt. eigenvalues --    1.39921   1.43760   1.69988   1.70255   1.75896
  Beta virt. eigenvalues --    1.83205   1.94034   2.03445   2.08966   2.10893
  Beta virt. eigenvalues --    2.14963   2.20568   2.30426   2.37491   2.45350
  Beta virt. eigenvalues --    3.38583   3.45034   3.47438   3.49024   3.52123
  Beta virt. eigenvalues --    3.56300   3.58372   3.63779   3.71039   3.72215
  Beta virt. eigenvalues --    4.53806   4.56815   4.62335   4.71933   4.91328
  Beta virt. eigenvalues --    4.99330   5.03439   5.04273   5.04691   5.08268
  Beta virt. eigenvalues --    5.12005   5.12817   5.13435   5.18118   5.25820
  Beta virt. eigenvalues --    5.26638   5.42997   5.47742   5.55700   5.58566
  Beta virt. eigenvalues --    5.68448   5.71597   5.86846   6.00913   6.63452
  Beta virt. eigenvalues --    8.77980  14.33816  14.38704  14.40449  14.41207
  Beta virt. eigenvalues --   14.44030  14.47163  14.49341  14.50713  14.63471
  Beta virt. eigenvalues --   14.73045  17.37581  17.63790  17.89519  50.03268
  Beta virt. eigenvalues --   50.11691 189.83364
          Condensed to atoms (all electrons):
              1          2          3          4
     1  S   15.324660   0.005537   0.154663   0.007094
     2  O    0.005537   8.404458  -0.005853   0.211095
     3  O    0.154663  -0.005853   8.238862   0.000621
     4  H    0.007094   0.211095   0.000621   0.285705
 Mulliken atomic charges:
              1
     1  S    0.508046
     2  O   -0.615237
     3  O   -0.388293
     4  H    0.495484
 Sum of Mulliken atomic charges =   0.00000
 Mulliken charges with hydrogens summed into heavy atoms:
              1
     1  S    0.508046
     2  O   -0.119753
     3  O   -0.388293
 Sum of Mulliken charges with hydrogens summed into heavy atoms =   0.00000
          Atomic-Atomic Spin Densities.
              1          2          3          4
     1  S    0.935998  -0.099414  -0.194061  -0.001796
     2  O   -0.099414   0.139461   0.019704  -0.004668
     3  O   -0.194061   0.019704   0.476293   0.000000
     4  H   -0.001796  -0.004668   0.000000   0.008716
 Mulliken atomic spin densities:
              1
     1  S    0.640727
     2  O    0.055083
     3  O    0.301936
     4  H    0.002253
 Sum of Mulliken atomic spin densities =   1.00000
 Electronic spatial extent (au):  <R**2>=            174.1214
 Charge=              0.0000 electrons
 Dipole moment (field-independent basis, Debye):
    X=              1.1957    Y=             -0.0891    Z=              0.6220  Tot=              1.3507
 Quadrupole moment (field-independent basis, Debye-Ang):
   XX=            -26.6665   YY=            -21.1435   ZZ=            -23.4923
   XY=              3.2255   XZ=              0.7675   YZ=              0.9812
 Traceless Quadrupole moment (field-independent basis, Debye-Ang):
   XX=             -2.8991   YY=              2.6239   ZZ=              0.2752
   XY=              3.2255   XZ=              0.7675   YZ=              0.9812
 Octapole moment (field-independent basis, Debye-Ang**2):
  XXX=              1.1232  YYY=              5.0391  ZZZ=             -0.0040  XYY=              4.3173
  XXY=              0.6776  XXZ=              0.8658  XZZ=              0.2623  YZZ=              1.2858
  YYZ=              1.1384  XYZ=              1.1304
 Hexadecapole moment (field-independent basis, Debye-Ang**3):
 XXXX=           -135.8127 YYYY=            -53.9545 ZZZZ=            -24.9225 XXXY=              5.3717
 XXXZ=              1.1803 YYYX=              5.7819 YYYZ=              1.6134 ZZZX=              0.4313
 ZZZY=              0.7014 XXYY=            -26.5204 XXZZ=            -25.7896 YYZZ=            -14.1415
 XXYZ=              1.4901 YYXZ=              1.3471 ZZXY=              0.5009
 N-N= 1.121238503286D+02 E-N=-2.284018481842D+03  KE= 8.210782290462D+02
                          Isotropic Fermi Contact Couplings
        Atom                 a.u.       MegaHertz       Gauss      10(-4) cm-1
     1  S(33)              0.10020      34.41484      12.28007      11.47956
     2  O(17)              0.02155     -13.06105      -4.66051      -4.35670
     3  O(17)              0.05201     -31.52540     -11.24905     -10.51574
     4  H(1)               0.00141       6.29602       2.24658       2.10013
 --------------------------------------------------------
       Center         ----  Spin Dipole Couplings  ----
                      3XX-RR        3YY-RR        3ZZ-RR
 --------------------------------------------------------
     1   Atom       -1.499300     -1.603230      3.102530
     2   Atom       -0.223503     -0.184503      0.408006
     3   Atom       -0.771778     -0.776092      1.547870
     4   Atom       -0.007482      0.018754     -0.011273
 --------------------------------------------------------
                        XY            XZ            YZ
 --------------------------------------------------------
     1   Atom       -0.005536     -0.064188      0.187802
     2   Atom        0.002975      0.023390     -0.123285
     3   Atom        0.007325      0.088315      0.038263
     4   Atom        0.004201      0.001381      0.005799
 --------------------------------------------------------


 ---------------------------------------------------------------------------------
              Anisotropic Spin Dipole Couplings in Principal Axis System
 ---------------------------------------------------------------------------------

       Atom             a.u.   MegaHertz   Gauss  10(-4) cm-1        Axes

              Baa    -1.6108   -66.041   -23.565   -22.029  0.0269  0.9989 -0.0394
     1 S(33)  Bbb    -1.5001   -61.503   -21.946   -20.515  0.9995 -0.0263  0.0150
              Bcc     3.1109   127.544    45.511    42.544 -0.0140  0.0398  0.9991
 
              Baa    -0.2273    16.451     5.870     5.487  0.9243 -0.3670 -0.1052
     2 O(17)  Bbb    -0.2060    14.909     5.320     4.973  0.3803  0.9095  0.1681
              Bcc     0.4334   -31.360   -11.190   -10.461  0.0340 -0.1954  0.9801
 
              Baa    -0.7819    56.574    20.187    18.871 -0.6578  0.7531  0.0126
     3 O(17)  Bbb    -0.7700    55.718    19.881    18.585  0.7522  0.6577 -0.0395
              Bcc     1.5519  -112.292   -40.069   -37.457  0.0380  0.0165  0.9991
 
              Baa    -0.0124    -6.634    -2.367    -2.213 -0.1338 -0.1637  0.9774
     4 H(1)   Bbb    -0.0081    -4.316    -1.540    -1.440  0.9789 -0.1758  0.1045
              Bcc     0.0205    10.949     3.907     3.652  0.1547  0.9707  0.1838
 

 ---------------------------------------------------------------------------------

 1\1\ CPUSERV-QCEXNOD10\SP\UwB97XD\6-311+G(3df)\H1O2S1(2)\ROOT\21-Aug-2
 025\0\\#sp wB97XD/6-311+G(3df)\\Optimizacion del hoso\\0,2\S,0,-0.1398
 43,-0.492008,0.019308\O,0,1.282132,0.275471,-0.05004\O,0,-1.151636,0.5
 63438,-0.023037\H,0,1.155521,1.166845,0.305681\\Version=EM64L-G09RevC.
 01\State=2-A\HF=-549.220542\S2=0.755434\S2-1=0.\S2A=0.75002\RMSD=7.540
 e-09\Dipole=0.4705102,-0.0324684,0.2449072\Quadrupole=-2.1792868,1.975
 9648,0.2033219,2.3781915,0.563456,0.7311455\PG=C01 [X(H1O2S1)]\\@


 MAN IS THE MEASURE OF ALL THINGS.
  -- PROTAGORAS (5TH CENTURY B.C.)
 Job cpu time:  0 days  0 hours  3 minutes 30.2 seconds.
 File lengths (MBytes):  RWF=     21 Int=      0 D2E=      0 Chk=      2 Scr=      1
 Normal termination of Gaussian 09 at Thu Aug 21 01:11:04 2025.
