 Entering Gaussian System, Link 0=g09
 Initial command:
 /soft/g09.c01/g09/l1.exe /scr/macias/389588.qcexmaster_vib3_-0.05/Gau-17150.inp -scrdir=/scr/macias/389588.qcexmaster_vib3_-0.05/
 Entering Link 1 = /soft/g09.c01/g09/l1.exe PID=     17160.
  
 Copyright (c) 1988,1990,1992,1993,1995,1998,2003,2009,2011,
            Gaussian, Inc.  All Rights Reserved.
  
 This is part of the Gaussian(R) 09 program.  It is based on
 the Gaussian(R) 03 system (copyright 2003, Gaussian, Inc.),
 the Gaussian(R) 98 system (copyright 1998, Gaussian, Inc.),
 the Gaussian(R) 94 system (copyright 1995, Gaussian, Inc.),
 the Gaussian 92(TM) system (copyright 1992, Gaussian, Inc.),
 the Gaussian 90(TM) system (copyright 1990, Gaussian, Inc.),
 the Gaussian 88(TM) system (copyright 1988, Gaussian, Inc.),
 the Gaussian 86(TM) system (copyright 1986, Carnegie Mellon
 University), and the Gaussian 82(TM) system (copyright 1983,
 Carnegie Mellon University). Gaussian is a federally registered
 trademark of Gaussian, Inc.
  
 This software contains proprietary and confidential information,
 including trade secrets, belonging to Gaussian, Inc.
  
 This software is provided under written license and may be
 used, copied, transmitted, or stored only in accord with that
 written license.
  
 The following legend is applicable only to US Government
 contracts under FAR:
  
                    RESTRICTED RIGHTS LEGEND
  
 Use, reproduction and disclosure by the US Government is
 subject to restrictions as set forth in subparagraphs (a)
 and (c) of the Commercial Computer Software - Restricted
 Rights clause in FAR 52.227-19.
  
 Gaussian, Inc.
 340 Quinnipiac St., Bldg. 40, Wallingford CT 06492
  
  
 ---------------------------------------------------------------
 Warning -- This program may not be used in any manner that
 competes with the business of Gaussian, Inc. or will provide
 assistance to any competitor of Gaussian, Inc.  The licensee
 of this program is prohibited from giving any competitor of
 Gaussian, Inc. access to this program.  By using this program,
 the user acknowledges that Gaussian, Inc. is engaged in the
 business of creating and licensing software in the field of
 computational chemistry and represents and warrants to the
 licensee that it is not a competitor of Gaussian, Inc. and that
 it will not use this program in any manner prohibited above.
 ---------------------------------------------------------------
  

 Cite this work as:
 Gaussian 09, Revision C.01,
 M. J. Frisch, G. W. Trucks, H. B. Schlegel, G. E. Scuseria, 
 M. A. Robb, J. R. Cheeseman, G. Scalmani, V. Barone, B. Mennucci, 
 G. A. Petersson, H. Nakatsuji, M. Caricato, X. Li, H. P. Hratchian, 
 A. F. Izmaylov, J. Bloino, G. Zheng, J. L. Sonnenberg, M. Hada, 
 M. Ehara, K. Toyota, R. Fukuda, J. Hasegawa, M. Ishida, T. Nakajima, 
 Y. Honda, O. Kitao, H. Nakai, T. Vreven, J. A. Montgomery, Jr., 
 J. E. Peralta, F. Ogliaro, M. Bearpark, J. J. Heyd, E. Brothers, 
 K. N. Kudin, V. N. Staroverov, T. Keith, R. Kobayashi, J. Normand, 
 K. Raghavachari, A. Rendell, J. C. Burant, S. S. Iyengar, J. Tomasi, 
 M. Cossi, N. Rega, J. M. Millam, M. Klene, J. E. Knox, J. B. Cross, 
 V. Bakken, C. Adamo, J. Jaramillo, R. Gomperts, R. E. Stratmann, 
 O. Yazyev, A. J. Austin, R. Cammi, C. Pomelli, J. W. Ochterski, 
 R. L. Martin, K. Morokuma, V. G. Zakrzewski, G. A. Voth, 
 P. Salvador, J. J. Dannenberg, S. Dapprich, A. D. Daniels, 
 O. Farkas, J. B. Foresman, J. V. Ortiz, J. Cioslowski, 
 and D. J. Fox, Gaussian, Inc., Wallingford CT, 2010.
 
  
 -----  Compilado por  -----------------------------------------
  
  Servicio de Calculo | Servicio de Informatica U. de Valencia
     calculo@uv.es    |  E-46100 Burjassot (Valencia) SPAIN
  
 ---------------------------------------------------------------
  
 ******************************************
 Gaussian 09:  EM64L-G09RevC.01 23-Sep-2011
                21-Aug-2025 
 ******************************************
 %chk=opt_freq.chk
 %nproc=6
 Will use up to    6 processors via shared memory.
 %mem=20GB
 Default route:  CacheSize=131072
 -----------------------
 #sp wB97XD/6-311+G(3df)
 -----------------------
 1/4=131072,38=1/1;
 2/4=131072,12=2,17=6,18=5,40=1/2;
 3/4=131072,5=4,6=6,7=16,11=2,16=1,25=1,30=1,74=-58/1,2,3;
 4/4=131072/1;
 5/4=131072,5=2,38=5/2;
 6/4=131072,7=2,8=2,9=2,10=2,28=1/1;
 99/4=131072,5=1,9=1/99;
 ---------------------
 Optimizacion del hoso
 ---------------------
 Charge =  0 Multiplicity = 2
 Symbolic Z-Matrix:
 S                    -0.15534  -0.48601   0.01731 
 O                     1.34563   0.27547  -0.04754 
 O                    -1.18714   0.55044  -0.02054 
 H                     1.21202   1.17885   0.27168 
 
                          Input orientation:                          
 ---------------------------------------------------------------------
 Center     Atomic      Atomic             Coordinates (Angstroms)
 Number     Number       Type             X           Y           Z
 ---------------------------------------------------------------------
      1         16           0       -0.155343   -0.486008    0.017308
      2          8           0        1.345632    0.275471   -0.047540
      3          8           0       -1.187136    0.550438   -0.020537
      4          1           0        1.212021    1.178845    0.271681
 ---------------------------------------------------------------------
                    Distance matrix (angstroms):
                    1          2          3          4
     1  S    0.000000
     2  O    1.684334   0.000000
     3  O    1.462959   2.547793   0.000000
     4  H    2.169361   0.967387   2.497247   0.000000
 Stoichiometry    HO2S(2)
 Framework group  C1[X(HO2S)]
 Deg. of freedom     6
 Full point group                 C1      NOp   1
 Largest Abelian subgroup         C1      NOp   1
 Largest concise Abelian subgroup C1      NOp   1
                         Standard orientation:                         
 ---------------------------------------------------------------------
 Center     Atomic      Atomic             Coordinates (Angstroms)
 Number     Number       Type             X           Y           Z
 ---------------------------------------------------------------------
      1         16           0       -0.164546   -0.483246    0.016470
      2          8           0        1.350908    0.249212   -0.045882
      3          8           0       -1.176115    0.572950   -0.021335
      4          1           0        1.234389    1.154642    0.274209
 ---------------------------------------------------------------------
 Rotational constants (GHZ):     33.4618739      9.3826146      7.3523887
 Standard basis: 6-311+G(3df) (5D, 7F)
 There are   128 symmetry adapted basis functions of A   symmetry.
 Integral buffers will be    131072 words long.
 Raffenetti 2 integral format.
 Two-electron integral symmetry is turned on.
   128 basis functions,   193 primitive gaussians,   146 cartesian basis functions
    17 alpha electrons       16 beta electrons
       nuclear repulsion energy       109.7813954311 Hartrees.
 NAtoms=    4 NActive=    4 NUniq=    4 SFac= 1.00D+00 NAtFMM=   60 NAOKFM=F Big=F
 Nuclear repulsion after empirical dispersion term =      109.7811371039 Hartrees.
 One-electron integrals computed using PRISM.
 NBasis=   128 RedAO= T  NBF=   128
 NBsUse=   128 1.00D-06 NBFU=   128
 Harris functional with IExCor= 4639 diagonalized for initial guess.
 ExpMin= 4.05D-02 ExpMax= 9.34D+04 ExpMxC= 3.17D+03 IAcc=2 IRadAn=         4 AccDes= 0.00D+00
 HarFok:  IExCor= 4639 AccDes= 0.00D+00 IRadAn=         4 IDoV= 1
 ScaDFX=  1.000000  1.000000  1.000000  1.000000
 FoFCou: FMM=F IPFlag=           0 FMFlag=      100000 FMFlg1=           0
         NFxFlg=           0 DoJE=T BraDBF=F KetDBF=T FulRan=T
         Omega=  0.000000  0.000000  1.000000  0.000000  0.000000 ICntrl=     500 IOpCl=  0
         NMat0=    1 NMatS0=    1 NMatT0=    0 NMatD0=    1 NMtDS0=    0 NMtDT0=    0
         I1Cent=           4 NGrid=           0.
 Petite list used in FoFCou.
 Initial guess orbital symmetries:
 Alpha Orbitals:
       Occupied  (A) (A) (A) (A) (A) (A) (A) (A) (A) (A) (A) (A)
                 (A) (A) (A) (A) (A)
       Virtual   (A) (A) (A) (A) (A) (A) (A) (A) (A) (A) (A) (A)
                 (A) (A) (A) (A) (A) (A) (A) (A) (A) (A) (A) (A)
                 (A) (A) (A) (A) (A) (A) (A) (A) (A) (A) (A) (A)
                 (A) (A) (A) (A) (A) (A) (A) (A) (A) (A) (A) (A)
                 (A) (A) (A) (A) (A) (A) (A) (A) (A) (A) (A) (A)
                 (A) (A) (A) (A) (A) (A) (A) (A) (A) (A) (A) (A)
                 (A) (A) (A) (A) (A) (A) (A) (A) (A) (A) (A) (A)
                 (A) (A) (A) (A) (A) (A) (A) (A) (A) (A) (A) (A)
                 (A) (A) (A) (A) (A) (A) (A) (A) (A) (A) (A) (A)
                 (A) (A) (A)
 Beta  Orbitals:
       Occupied  (A) (A) (A) (A) (A) (A) (A) (A) (A) (A) (A) (A)
                 (A) (A) (A) (A)
       Virtual   (A) (A) (A) (A) (A) (A) (A) (A) (A) (A) (A) (A)
                 (A) (A) (A) (A) (A) (A) (A) (A) (A) (A) (A) (A)
                 (A) (A) (A) (A) (A) (A) (A) (A) (A) (A) (A) (A)
                 (A) (A) (A) (A) (A) (A) (A) (A) (A) (A) (A) (A)
                 (A) (A) (A) (A) (A) (A) (A) (A) (A) (A) (A) (A)
                 (A) (A) (A) (A) (A) (A) (A) (A) (A) (A) (A) (A)
                 (A) (A) (A) (A) (A) (A) (A) (A) (A) (A) (A) (A)
                 (A) (A) (A) (A) (A) (A) (A) (A) (A) (A) (A) (A)
                 (A) (A) (A) (A) (A) (A) (A) (A) (A) (A) (A) (A)
                 (A) (A) (A) (A)
 The electronic state of the initial guess is 2-A.
 Initial guess <Sx>= 0.0000 <Sy>= 0.0000 <Sz>= 0.5000 <S**2>= 0.7500 S= 0.5000
 Requested convergence on RMS density matrix=1.00D-08 within 128 cycles.
 Requested convergence on MAX density matrix=1.00D-06.
 Requested convergence on             energy=1.00D-06.
 No special actions if energy rises.
 FoFJK:  IHMeth= 1 ICntrl=     0 DoSepK=T KAlg= 1 I1Cent= 0 FoldK=F
 FoFJK:  IHMeth= 1 ICntrl=     0 DoSepK=T KAlg= 1 I1Cent= 0 FoldK=F
 FoFJK:  IHMeth= 1 ICntrl=     0 DoSepK=T KAlg= 1 I1Cent= 0 FoldK=F
 FoFJK:  IHMeth= 1 ICntrl=     0 DoSepK=T KAlg= 1 I1Cent= 0 FoldK=F
 FoFJK:  IHMeth= 1 ICntrl=     0 DoSepK=T KAlg= 1 I1Cent= 0 FoldK=F
 FoFJK:  IHMeth= 1 ICntrl=     0 DoSepK=T KAlg= 1 I1Cent= 0 FoldK=F
 FoFJK:  IHMeth= 1 ICntrl=     0 DoSepK=T KAlg= 1 I1Cent= 0 FoldK=F
 FoFJK:  IHMeth= 1 ICntrl=     0 DoSepK=T KAlg= 1 I1Cent= 0 FoldK=F
 FoFJK:  IHMeth= 1 ICntrl=     0 DoSepK=T KAlg= 1 I1Cent= 0 FoldK=F
 FoFJK:  IHMeth= 1 ICntrl=     0 DoSepK=T KAlg= 1 I1Cent= 0 FoldK=F
 FoFJK:  IHMeth= 1 ICntrl=     0 DoSepK=T KAlg= 1 I1Cent= 0 FoldK=F
 FoFJK:  IHMeth= 1 ICntrl=     0 DoSepK=T KAlg= 1 I1Cent= 0 FoldK=F
 FoFJK:  IHMeth= 1 ICntrl=     0 DoSepK=T KAlg= 1 I1Cent= 0 FoldK=F
 FoFJK:  IHMeth= 1 ICntrl=     0 DoSepK=T KAlg= 1 I1Cent= 0 FoldK=F
 FoFJK:  IHMeth= 1 ICntrl=     0 DoSepK=T KAlg= 1 I1Cent= 0 FoldK=F
 FoFJK:  IHMeth= 1 ICntrl=     0 DoSepK=T KAlg= 1 I1Cent= 0 FoldK=F
 SCF Done:  E(UwB97XD) =  -549.219672694     A.U. after   16 cycles
             Convg  =    0.4424D-08             -V/T =  2.0018
 <Sx>= 0.0000 <Sy>= 0.0000 <Sz>= 0.5000 <S**2>= 0.7555 S= 0.5027
 <L.S>= 0.000000000000E+00
 Annihilation of the first spin contaminant:
 S**2 before annihilation     0.7555,   after     0.7500

 **********************************************************************

            Population analysis using the SCF density.

 **********************************************************************

 Orbital symmetries:
 Alpha Orbitals:
       Occupied  (A) (A) (A) (A) (A) (A) (A) (A) (A) (A) (A) (A)
                 (A) (A) (A) (A) (A)
       Virtual   (A) (A) (A) (A) (A) (A) (A) (A) (A) (A) (A) (A)
                 (A) (A) (A) (A) (A) (A) (A) (A) (A) (A) (A) (A)
                 (A) (A) (A) (A) (A) (A) (A) (A) (A) (A) (A) (A)
                 (A) (A) (A) (A) (A) (A) (A) (A) (A) (A) (A) (A)
                 (A) (A) (A) (A) (A) (A) (A) (A) (A) (A) (A) (A)
                 (A) (A) (A) (A) (A) (A) (A) (A) (A) (A) (A) (A)
                 (A) (A) (A) (A) (A) (A) (A) (A) (A) (A) (A) (A)
                 (A) (A) (A) (A) (A) (A) (A) (A) (A) (A) (A) (A)
                 (A) (A) (A) (A) (A) (A) (A) (A) (A) (A) (A) (A)
                 (A) (A) (A)
 Beta  Orbitals:
       Occupied  (A) (A) (A) (A) (A) (A) (A) (A) (A) (A) (A) (A)
                 (A) (A) (A) (A)
       Virtual   (A) (A) (A) (A) (A) (A) (A) (A) (A) (A) (A) (A)
                 (A) (A) (A) (A) (A) (A) (A) (A) (A) (A) (A) (A)
                 (A) (A) (A) (A) (A) (A) (A) (A) (A) (A) (A) (A)
                 (A) (A) (A) (A) (A) (A) (A) (A) (A) (A) (A) (A)
                 (A) (A) (A) (A) (A) (A) (A) (A) (A) (A) (A) (A)
                 (A) (A) (A) (A) (A) (A) (A) (A) (A) (A) (A) (A)
                 (A) (A) (A) (A) (A) (A) (A) (A) (A) (A) (A) (A)
                 (A) (A) (A) (A) (A) (A) (A) (A) (A) (A) (A) (A)
                 (A) (A) (A) (A) (A) (A) (A) (A) (A) (A) (A) (A)
                 (A) (A) (A) (A)
 The electronic state is 2-A.
 Alpha  occ. eigenvalues --  -89.15430 -19.31146 -19.29080  -8.18142  -6.13064
 Alpha  occ. eigenvalues --   -6.12835  -6.12495  -1.21415  -1.14427  -0.79479
 Alpha  occ. eigenvalues --   -0.62650  -0.56929  -0.56133  -0.51151  -0.46582
 Alpha  occ. eigenvalues --   -0.42601  -0.31689
 Alpha virt. eigenvalues --    0.04221   0.06466   0.07357   0.09327   0.10905
 Alpha virt. eigenvalues --    0.13400   0.19026   0.22645   0.24573   0.24858
 Alpha virt. eigenvalues --    0.26192   0.27991   0.30174   0.32299   0.32675
 Alpha virt. eigenvalues --    0.35046   0.36129   0.37698   0.39129   0.40250
 Alpha virt. eigenvalues --    0.40916   0.49162   0.57047   0.67477   0.78180
 Alpha virt. eigenvalues --    0.81676   0.87078   0.87762   0.93725   0.95647
 Alpha virt. eigenvalues --    0.97203   0.97883   0.99608   1.01995   1.05440
 Alpha virt. eigenvalues --    1.08716   1.09767   1.11450   1.13411   1.17103
 Alpha virt. eigenvalues --    1.20075   1.27893   1.32559   1.37534   1.38845
 Alpha virt. eigenvalues --    1.43915   1.66647   1.67579   1.73906   1.79853
 Alpha virt. eigenvalues --    1.91571   2.00290   2.02862   2.08269   2.10959
 Alpha virt. eigenvalues --    2.19983   2.32262   2.36256   2.44985   3.37814
 Alpha virt. eigenvalues --    3.41717   3.44661   3.48232   3.50505   3.54845
 Alpha virt. eigenvalues --    3.56174   3.64049   3.69778   3.71097   4.53554
 Alpha virt. eigenvalues --    4.57294   4.61192   4.66365   4.90267   4.99347
 Alpha virt. eigenvalues --    5.03545   5.04185   5.04510   5.06650   5.08350
 Alpha virt. eigenvalues --    5.09147   5.10724   5.14986   5.22897   5.23842
 Alpha virt. eigenvalues --    5.38528   5.41727   5.47485   5.55742   5.66694
 Alpha virt. eigenvalues --    5.71783   5.83721   5.96664   6.48939   8.70441
 Alpha virt. eigenvalues --   14.32806  14.35109  14.36498  14.39716  14.41523
 Alpha virt. eigenvalues --   14.44732  14.45776  14.49097  14.59764  14.69862
 Alpha virt. eigenvalues --   17.35501  17.59931  17.87961  50.02234  50.10136
 Alpha virt. eigenvalues --  189.75033
  Beta  occ. eigenvalues --  -89.15044 -19.30926 -19.28173  -8.17800  -6.12837
  Beta  occ. eigenvalues --   -6.12286  -6.11598  -1.20056  -1.13190  -0.76918
  Beta  occ. eigenvalues --   -0.61525  -0.56063  -0.52463  -0.49086  -0.43211
  Beta  occ. eigenvalues --   -0.41459
  Beta virt. eigenvalues --   -0.04563   0.04896   0.06768   0.07839   0.09917
  Beta virt. eigenvalues --    0.11629   0.14149   0.19286   0.22873   0.24895
  Beta virt. eigenvalues --    0.25066   0.26631   0.28377   0.30477   0.32518
  Beta virt. eigenvalues --    0.33782   0.35331   0.36700   0.38310   0.40461
  Beta virt. eigenvalues --    0.40830   0.41572   0.49756   0.57235   0.68007
  Beta virt. eigenvalues --    0.78715   0.81968   0.87554   0.88583   0.94440
  Beta virt. eigenvalues --    0.95972   0.98159   0.98998   1.00430   1.02678
  Beta virt. eigenvalues --    1.06182   1.09587   1.11432   1.12206   1.13734
  Beta virt. eigenvalues --    1.17998   1.21298   1.28340   1.33917   1.38353
  Beta virt. eigenvalues --    1.39289   1.44243   1.69461   1.69838   1.75499
  Beta virt. eigenvalues --    1.81423   1.92464   2.01826   2.03665   2.10520
  Beta virt. eigenvalues --    2.11181   2.20488   2.32770   2.37175   2.45422
  Beta virt. eigenvalues --    3.38720   3.43379   3.47086   3.49051   3.51850
  Beta virt. eigenvalues --    3.56344   3.57670   3.64763   3.71037   3.71381
  Beta virt. eigenvalues --    4.54095   4.57450   4.62081   4.66784   4.90914
  Beta virt. eigenvalues --    4.99882   5.04251   5.04935   5.05134   5.08003
  Beta virt. eigenvalues --    5.11071   5.12146   5.12710   5.15764   5.23996
  Beta virt. eigenvalues --    5.24991   5.39135   5.42238   5.48168   5.56489
  Beta virt. eigenvalues --    5.67729   5.72213   5.85475   5.97190   6.49346
  Beta virt. eigenvalues --    8.70818  14.34113  14.37764  14.40170  14.40960
  Beta virt. eigenvalues --   14.43508  14.46382  14.48478  14.50307  14.60301
  Beta virt. eigenvalues --   14.71945  17.36895  17.60230  17.88282  50.02447
  Beta virt. eigenvalues --   50.10940 189.75338
          Condensed to atoms (all electrons):
              1          2          3          4
     1  S   15.309920   0.010188   0.144643   0.010260
     2  O    0.010188   8.427991   0.003185   0.208661
     3  O    0.144643   0.003185   8.218238  -0.000557
     4  H    0.010260   0.208661  -0.000557   0.291092
 Mulliken atomic charges:
              1
     1  S    0.524989
     2  O   -0.650025
     3  O   -0.365508
     4  H    0.490544
 Sum of Mulliken atomic charges =   0.00000
 Mulliken charges with hydrogens summed into heavy atoms:
              1
     1  S    0.524989
     2  O   -0.159481
     3  O   -0.365508
 Sum of Mulliken charges with hydrogens summed into heavy atoms =   0.00000
          Atomic-Atomic Spin Densities.
              1          2          3          4
     1  S    0.919742  -0.087774  -0.193732  -0.000403
     2  O   -0.087774   0.127912   0.016890  -0.003280
     3  O   -0.193732   0.016890   0.484950  -0.000464
     4  H   -0.000403  -0.003280  -0.000464   0.004922
 Mulliken atomic spin densities:
              1
     1  S    0.637833
     2  O    0.053748
     3  O    0.307645
     4  H    0.000775
 Sum of Mulliken atomic spin densities =   1.00000
 Electronic spatial extent (au):  <R**2>=            181.4594
 Charge=              0.0000 electrons
 Dipole moment (field-independent basis, Debye):
    X=              0.9022    Y=             -0.1079    Z=              0.5613  Tot=              1.0681
 Quadrupole moment (field-independent basis, Debye-Ang):
   XX=            -26.8477   YY=            -21.1047   ZZ=            -23.6090
   XY=              3.3100   XZ=              0.7100   YZ=              0.8807
 Traceless Quadrupole moment (field-independent basis, Debye-Ang):
   XX=             -2.9939   YY=              2.7491   ZZ=              0.2448
   XY=              3.3100   XZ=              0.7100   YZ=              0.8807
 Octapole moment (field-independent basis, Debye-Ang**2):
  XXX=              0.3205  YYY=              4.7439  ZZZ=              0.0101  XYY=              4.3438
  XXY=              0.9578  XXZ=              0.8690  XZZ=             -0.0392  YZZ=              1.1496
  YYZ=              1.0134  XYZ=              1.0842
 Hexadecapole moment (field-independent basis, Debye-Ang**3):
 XXXX=           -145.4478 YYYY=            -52.9049 ZZZZ=            -24.9325 XXXY=              5.9018
 XXXZ=              1.1977 YYYX=              5.7322 YYYZ=              1.4309 ZZZX=              0.3870
 ZZZY=              0.6148 XXYY=            -27.5517 XXZZ=            -27.5394 YYZZ=            -13.9654
 XXYZ=              1.5026 YYXZ=              1.2483 ZZXY=              0.3886
 N-N= 1.097811371039D+02 E-N=-2.276882684322D+03  KE= 8.209127308419D+02
                          Isotropic Fermi Contact Couplings
        Atom                 a.u.       MegaHertz       Gauss      10(-4) cm-1
     1  S(33)              0.09739      33.44951      11.93562      11.15755
     2  O(17)              0.01868     -11.32545      -4.04120      -3.77776
     3  O(17)              0.05277     -31.98638     -11.41353     -10.66951
     4  H(1)               0.00046       2.04686       0.73037       0.68276
 --------------------------------------------------------
       Center         ----  Spin Dipole Couplings  ----
                      3XX-RR        3YY-RR        3ZZ-RR
 --------------------------------------------------------
     1   Atom       -1.504685     -1.613518      3.118204
     2   Atom       -0.228161     -0.183687      0.411848
     3   Atom       -0.787898     -0.793986      1.581884
     4   Atom       -0.007149      0.018068     -0.010919
 --------------------------------------------------------
                        XY            XZ            YZ
 --------------------------------------------------------
     1   Atom        0.001389     -0.045180      0.182513
     2   Atom        0.002194      0.017199     -0.107669
     3   Atom        0.008630      0.077408      0.047552
     4   Atom        0.004506      0.001231      0.004810
 --------------------------------------------------------


 ---------------------------------------------------------------------------------
              Anisotropic Spin Dipole Couplings in Principal Axis System
 ---------------------------------------------------------------------------------

       Atom             a.u.   MegaHertz   Gauss  10(-4) cm-1        Axes

              Baa    -1.6206   -66.444   -23.709   -22.163 -0.0271  0.9989 -0.0387
     1 S(33)  Bbb    -1.5050   -61.705   -22.018   -20.583  0.9996  0.0274  0.0087
              Bcc     3.1257   128.150    45.727    42.746 -0.0097  0.0385  0.9992
 
              Baa    -0.2296    16.610     5.927     5.541  0.9821 -0.1796 -0.0565
     2 O(17)  Bbb    -0.2016    14.586     5.205     4.865  0.1865  0.9685  0.1648
              Bcc     0.4311   -31.196   -11.132   -10.406  0.0251 -0.1724  0.9847
 
              Baa    -0.8001    57.895    20.659    19.312 -0.5899  0.8075  0.0030
     3 O(17)  Bbb    -0.7853    56.821    20.275    18.953  0.8068  0.5896 -0.0382
              Bcc     1.5854  -114.716   -40.934   -38.265  0.0327  0.0201  0.9993
 
              Baa    -0.0118    -6.274    -2.239    -2.093 -0.1260 -0.1394  0.9822
     4 H(1)   Bbb    -0.0079    -4.210    -1.502    -1.404  0.9772 -0.1879  0.0987
              Bcc     0.0196    10.484     3.741     3.497  0.1708  0.9723  0.1599
 

 ---------------------------------------------------------------------------------

 1\1\ CPUSERV-QCEXNOD13\SP\UwB97XD\6-311+G(3df)\H1O2S1(2)\ROOT\21-Aug-2
 025\0\\#sp wB97XD/6-311+G(3df)\\Optimizacion del hoso\\0,2\S,0,-0.1553
 43,-0.486008,0.017308\O,0,1.345632,0.275471,-0.04754\O,0,-1.187136,0.5
 50438,-0.020537\H,0,1.212021,1.178845,0.271681\\Version=EM64L-G09RevC.
 01\State=2-A\HF=-549.2196727\S2=0.755493\S2-1=0.\S2A=0.750021\RMSD=4.4
 24e-09\Dipole=0.3559627,-0.0353653,0.2205034\Quadrupole=-2.3180992,2.1
 387043,0.1793949,2.3780243,0.5151587,0.6600121\PG=C01 [X(H1O2S1)]\\@


 TO DRY ONE'S EYES AND LAUGH AT A FALL,
 AND BAFFLED, GET UP AND BEGIN AGAIN.
           R. BROWNING
 Job cpu time:  0 days  0 hours  6 minutes 27.9 seconds.
 File lengths (MBytes):  RWF=     21 Int=      0 D2E=      0 Chk=      2 Scr=      1
 Normal termination of Gaussian 09 at Thu Aug 21 00:40:01 2025.
