 Entering Gaussian System, Link 0=g09
 Initial command:
 /soft/g09.c01/g09/l1.exe /scr/macias/389583.qcexmaster_vib2_0.15/Gau-836.inp -scrdir=/scr/macias/389583.qcexmaster_vib2_0.15/
 Entering Link 1 = /soft/g09.c01/g09/l1.exe PID=       842.
  
 Copyright (c) 1988,1990,1992,1993,1995,1998,2003,2009,2011,
            Gaussian, Inc.  All Rights Reserved.
  
 This is part of the Gaussian(R) 09 program.  It is based on
 the Gaussian(R) 03 system (copyright 2003, Gaussian, Inc.),
 the Gaussian(R) 98 system (copyright 1998, Gaussian, Inc.),
 the Gaussian(R) 94 system (copyright 1995, Gaussian, Inc.),
 the Gaussian 92(TM) system (copyright 1992, Gaussian, Inc.),
 the Gaussian 90(TM) system (copyright 1990, Gaussian, Inc.),
 the Gaussian 88(TM) system (copyright 1988, Gaussian, Inc.),
 the Gaussian 86(TM) system (copyright 1986, Carnegie Mellon
 University), and the Gaussian 82(TM) system (copyright 1983,
 Carnegie Mellon University). Gaussian is a federally registered
 trademark of Gaussian, Inc.
  
 This software contains proprietary and confidential information,
 including trade secrets, belonging to Gaussian, Inc.
  
 This software is provided under written license and may be
 used, copied, transmitted, or stored only in accord with that
 written license.
  
 The following legend is applicable only to US Government
 contracts under FAR:
  
                    RESTRICTED RIGHTS LEGEND
  
 Use, reproduction and disclosure by the US Government is
 subject to restrictions as set forth in subparagraphs (a)
 and (c) of the Commercial Computer Software - Restricted
 Rights clause in FAR 52.227-19.
  
 Gaussian, Inc.
 340 Quinnipiac St., Bldg. 40, Wallingford CT 06492
  
  
 ---------------------------------------------------------------
 Warning -- This program may not be used in any manner that
 competes with the business of Gaussian, Inc. or will provide
 assistance to any competitor of Gaussian, Inc.  The licensee
 of this program is prohibited from giving any competitor of
 Gaussian, Inc. access to this program.  By using this program,
 the user acknowledges that Gaussian, Inc. is engaged in the
 business of creating and licensing software in the field of
 computational chemistry and represents and warrants to the
 licensee that it is not a competitor of Gaussian, Inc. and that
 it will not use this program in any manner prohibited above.
 ---------------------------------------------------------------
  

 Cite this work as:
 Gaussian 09, Revision C.01,
 M. J. Frisch, G. W. Trucks, H. B. Schlegel, G. E. Scuseria, 
 M. A. Robb, J. R. Cheeseman, G. Scalmani, V. Barone, B. Mennucci, 
 G. A. Petersson, H. Nakatsuji, M. Caricato, X. Li, H. P. Hratchian, 
 A. F. Izmaylov, J. Bloino, G. Zheng, J. L. Sonnenberg, M. Hada, 
 M. Ehara, K. Toyota, R. Fukuda, J. Hasegawa, M. Ishida, T. Nakajima, 
 Y. Honda, O. Kitao, H. Nakai, T. Vreven, J. A. Montgomery, Jr., 
 J. E. Peralta, F. Ogliaro, M. Bearpark, J. J. Heyd, E. Brothers, 
 K. N. Kudin, V. N. Staroverov, T. Keith, R. Kobayashi, J. Normand, 
 K. Raghavachari, A. Rendell, J. C. Burant, S. S. Iyengar, J. Tomasi, 
 M. Cossi, N. Rega, J. M. Millam, M. Klene, J. E. Knox, J. B. Cross, 
 V. Bakken, C. Adamo, J. Jaramillo, R. Gomperts, R. E. Stratmann, 
 O. Yazyev, A. J. Austin, R. Cammi, C. Pomelli, J. W. Ochterski, 
 R. L. Martin, K. Morokuma, V. G. Zakrzewski, G. A. Voth, 
 P. Salvador, J. J. Dannenberg, S. Dapprich, A. D. Daniels, 
 O. Farkas, J. B. Foresman, J. V. Ortiz, J. Cioslowski, 
 and D. J. Fox, Gaussian, Inc., Wallingford CT, 2010.
 
  
 -----  Compilado por  -----------------------------------------
  
  Servicio de Calculo | Servicio de Informatica U. de Valencia
     calculo@uv.es    |  E-46100 Burjassot (Valencia) SPAIN
  
 ---------------------------------------------------------------
  
 ******************************************
 Gaussian 09:  EM64L-G09RevC.01 23-Sep-2011
                21-Aug-2025 
 ******************************************
 %chk=opt_freq.chk
 %nproc=6
 Will use up to    6 processors via shared memory.
 %mem=20GB
 Default route:  CacheSize=131072
 -----------------------
 #sp wB97XD/6-311+G(3df)
 -----------------------
 1/4=131072,38=1/1;
 2/4=131072,12=2,17=6,18=5,40=1/2;
 3/4=131072,5=4,6=6,7=16,11=2,16=1,25=1,30=1,74=-58/1,2,3;
 4/4=131072/1;
 5/4=131072,5=2,38=5/2;
 6/4=131072,7=2,8=2,9=2,10=2,28=1/1;
 99/4=131072,5=1,9=1/99;
 ---------------------
 Optimizacion del hoso
 ---------------------
 Charge =  0 Multiplicity = 2
 Symbolic Z-Matrix:
 S                    -0.13734  -0.44701   0.01181 
 O                     1.35213   0.22797  -0.03754 
 O                    -1.23664   0.51844  -0.01554 
 H                     1.33052   1.17185   0.19068 
 
                          Input orientation:                          
 ---------------------------------------------------------------------
 Center     Atomic      Atomic             Coordinates (Angstroms)
 Number     Number       Type             X           Y           Z
 ---------------------------------------------------------------------
      1         16           0       -0.137343   -0.447008    0.011808
      2          8           0        1.352132    0.227971   -0.037540
      3          8           0       -1.236636    0.518438   -0.015537
      4          1           0        1.330521    1.171845    0.190681
 ---------------------------------------------------------------------
                    Distance matrix (angstroms):
                    1          2          3          4
     1  S    0.000000
     2  O    1.636022   0.000000
     3  O    1.463311   2.605106   0.000000
     4  H    2.192557   0.971314   2.657021   0.000000
 Stoichiometry    HO2S(2)
 Framework group  C1[X(HO2S)]
 Deg. of freedom     6
 Full point group                 C1      NOp   1
 Largest Abelian subgroup         C1      NOp   1
 Largest concise Abelian subgroup C1      NOp   1
                         Standard orientation:                         
 ---------------------------------------------------------------------
 Center     Atomic      Atomic             Coordinates (Angstroms)
 Number     Number       Type             X           Y           Z
 ---------------------------------------------------------------------
      1         16           0       -0.136589   -0.447492    0.013431
      2          8           0        1.349142    0.235739   -0.035227
      3          8           0       -1.241223    0.511787   -0.015658
      4          1           0        1.322075    1.179669    0.192180
 ---------------------------------------------------------------------
 Rotational constants (GHZ):     39.2662408      8.9914702      7.3290412
 Standard basis: 6-311+G(3df) (5D, 7F)
 There are   128 symmetry adapted basis functions of A   symmetry.
 Integral buffers will be    131072 words long.
 Raffenetti 2 integral format.
 Two-electron integral symmetry is turned on.
   128 basis functions,   193 primitive gaussians,   146 cartesian basis functions
    17 alpha electrons       16 beta electrons
       nuclear repulsion energy       110.5044500680 Hartrees.
 NAtoms=    4 NActive=    4 NUniq=    4 SFac= 1.00D+00 NAtFMM=   60 NAOKFM=F Big=F
 Nuclear repulsion after empirical dispersion term =      110.5041646847 Hartrees.
 One-electron integrals computed using PRISM.
 NBasis=   128 RedAO= T  NBF=   128
 NBsUse=   128 1.00D-06 NBFU=   128
 Harris functional with IExCor= 4639 diagonalized for initial guess.
 ExpMin= 4.05D-02 ExpMax= 9.34D+04 ExpMxC= 3.17D+03 IAcc=2 IRadAn=         4 AccDes= 0.00D+00
 HarFok:  IExCor= 4639 AccDes= 0.00D+00 IRadAn=         4 IDoV= 1
 ScaDFX=  1.000000  1.000000  1.000000  1.000000
 FoFCou: FMM=F IPFlag=           0 FMFlag=      100000 FMFlg1=           0
         NFxFlg=           0 DoJE=T BraDBF=F KetDBF=T FulRan=T
         Omega=  0.000000  0.000000  1.000000  0.000000  0.000000 ICntrl=     500 IOpCl=  0
         NMat0=    1 NMatS0=    1 NMatT0=    0 NMatD0=    1 NMtDS0=    0 NMtDT0=    0
         I1Cent=           4 NGrid=           0.
 Petite list used in FoFCou.
 Initial guess orbital symmetries:
 Alpha Orbitals:
       Occupied  (A) (A) (A) (A) (A) (A) (A) (A) (A) (A) (A) (A)
                 (A) (A) (A) (A) (A)
       Virtual   (A) (A) (A) (A) (A) (A) (A) (A) (A) (A) (A) (A)
                 (A) (A) (A) (A) (A) (A) (A) (A) (A) (A) (A) (A)
                 (A) (A) (A) (A) (A) (A) (A) (A) (A) (A) (A) (A)
                 (A) (A) (A) (A) (A) (A) (A) (A) (A) (A) (A) (A)
                 (A) (A) (A) (A) (A) (A) (A) (A) (A) (A) (A) (A)
                 (A) (A) (A) (A) (A) (A) (A) (A) (A) (A) (A) (A)
                 (A) (A) (A) (A) (A) (A) (A) (A) (A) (A) (A) (A)
                 (A) (A) (A) (A) (A) (A) (A) (A) (A) (A) (A) (A)
                 (A) (A) (A) (A) (A) (A) (A) (A) (A) (A) (A) (A)
                 (A) (A) (A)
 Beta  Orbitals:
       Occupied  (A) (A) (A) (A) (A) (A) (A) (A) (A) (A) (A) (A)
                 (A) (A) (A) (A)
       Virtual   (A) (A) (A) (A) (A) (A) (A) (A) (A) (A) (A) (A)
                 (A) (A) (A) (A) (A) (A) (A) (A) (A) (A) (A) (A)
                 (A) (A) (A) (A) (A) (A) (A) (A) (A) (A) (A) (A)
                 (A) (A) (A) (A) (A) (A) (A) (A) (A) (A) (A) (A)
                 (A) (A) (A) (A) (A) (A) (A) (A) (A) (A) (A) (A)
                 (A) (A) (A) (A) (A) (A) (A) (A) (A) (A) (A) (A)
                 (A) (A) (A) (A) (A) (A) (A) (A) (A) (A) (A) (A)
                 (A) (A) (A) (A) (A) (A) (A) (A) (A) (A) (A) (A)
                 (A) (A) (A) (A) (A) (A) (A) (A) (A) (A) (A) (A)
                 (A) (A) (A) (A)
 The electronic state of the initial guess is 2-A.
 Initial guess <Sx>= 0.0000 <Sy>= 0.0000 <Sz>= 0.5000 <S**2>= 0.7500 S= 0.5000
 Requested convergence on RMS density matrix=1.00D-08 within 128 cycles.
 Requested convergence on MAX density matrix=1.00D-06.
 Requested convergence on             energy=1.00D-06.
 No special actions if energy rises.
 FoFJK:  IHMeth= 1 ICntrl=     0 DoSepK=T KAlg= 1 I1Cent= 0 FoldK=F
 FoFJK:  IHMeth= 1 ICntrl=     0 DoSepK=T KAlg= 1 I1Cent= 0 FoldK=F
 FoFJK:  IHMeth= 1 ICntrl=     0 DoSepK=T KAlg= 1 I1Cent= 0 FoldK=F
 FoFJK:  IHMeth= 1 ICntrl=     0 DoSepK=T KAlg= 1 I1Cent= 0 FoldK=F
 FoFJK:  IHMeth= 1 ICntrl=     0 DoSepK=T KAlg= 1 I1Cent= 0 FoldK=F
 FoFJK:  IHMeth= 1 ICntrl=     0 DoSepK=T KAlg= 1 I1Cent= 0 FoldK=F
 FoFJK:  IHMeth= 1 ICntrl=     0 DoSepK=T KAlg= 1 I1Cent= 0 FoldK=F
 FoFJK:  IHMeth= 1 ICntrl=     0 DoSepK=T KAlg= 1 I1Cent= 0 FoldK=F
 FoFJK:  IHMeth= 1 ICntrl=     0 DoSepK=T KAlg= 1 I1Cent= 0 FoldK=F
 FoFJK:  IHMeth= 1 ICntrl=     0 DoSepK=T KAlg= 1 I1Cent= 0 FoldK=F
 FoFJK:  IHMeth= 1 ICntrl=     0 DoSepK=T KAlg= 1 I1Cent= 0 FoldK=F
 FoFJK:  IHMeth= 1 ICntrl=     0 DoSepK=T KAlg= 1 I1Cent= 0 FoldK=F
 FoFJK:  IHMeth= 1 ICntrl=     0 DoSepK=T KAlg= 1 I1Cent= 0 FoldK=F
 FoFJK:  IHMeth= 1 ICntrl=     0 DoSepK=T KAlg= 1 I1Cent= 0 FoldK=F
 FoFJK:  IHMeth= 1 ICntrl=     0 DoSepK=T KAlg= 1 I1Cent= 0 FoldK=F
 SCF Done:  E(UwB97XD) =  -549.219799956     A.U. after   15 cycles
             Convg  =    0.6448D-08             -V/T =  2.0017
 <Sx>= 0.0000 <Sy>= 0.0000 <Sz>= 0.5000 <S**2>= 0.7556 S= 0.5028
 <L.S>= 0.000000000000E+00
 Annihilation of the first spin contaminant:
 S**2 before annihilation     0.7556,   after     0.7500

 **********************************************************************

            Population analysis using the SCF density.

 **********************************************************************

 Orbital symmetries:
 Alpha Orbitals:
       Occupied  (A) (A) (A) (A) (A) (A) (A) (A) (A) (A) (A) (A)
                 (A) (A) (A) (A) (A)
       Virtual   (A) (A) (A) (A) (A) (A) (A) (A) (A) (A) (A) (A)
                 (A) (A) (A) (A) (A) (A) (A) (A) (A) (A) (A) (A)
                 (A) (A) (A) (A) (A) (A) (A) (A) (A) (A) (A) (A)
                 (A) (A) (A) (A) (A) (A) (A) (A) (A) (A) (A) (A)
                 (A) (A) (A) (A) (A) (A) (A) (A) (A) (A) (A) (A)
                 (A) (A) (A) (A) (A) (A) (A) (A) (A) (A) (A) (A)
                 (A) (A) (A) (A) (A) (A) (A) (A) (A) (A) (A) (A)
                 (A) (A) (A) (A) (A) (A) (A) (A) (A) (A) (A) (A)
                 (A) (A) (A) (A) (A) (A) (A) (A) (A) (A) (A) (A)
                 (A) (A) (A)
 Beta  Orbitals:
       Occupied  (A) (A) (A) (A) (A) (A) (A) (A) (A) (A) (A) (A)
                 (A) (A) (A) (A)
       Virtual   (A) (A) (A) (A) (A) (A) (A) (A) (A) (A) (A) (A)
                 (A) (A) (A) (A) (A) (A) (A) (A) (A) (A) (A) (A)
                 (A) (A) (A) (A) (A) (A) (A) (A) (A) (A) (A) (A)
                 (A) (A) (A) (A) (A) (A) (A) (A) (A) (A) (A) (A)
                 (A) (A) (A) (A) (A) (A) (A) (A) (A) (A) (A) (A)
                 (A) (A) (A) (A) (A) (A) (A) (A) (A) (A) (A) (A)
                 (A) (A) (A) (A) (A) (A) (A) (A) (A) (A) (A) (A)
                 (A) (A) (A) (A) (A) (A) (A) (A) (A) (A) (A) (A)
                 (A) (A) (A) (A) (A) (A) (A) (A) (A) (A) (A) (A)
                 (A) (A) (A) (A)
 The electronic state is 2-A.
 Alpha  occ. eigenvalues --  -89.14805 -19.32019 -19.28628  -8.17528  -6.12458
 Alpha  occ. eigenvalues --   -6.12216  -6.11870  -1.21875  -1.15228  -0.80113
 Alpha  occ. eigenvalues --   -0.63269  -0.57016  -0.56377  -0.50396  -0.47544
 Alpha  occ. eigenvalues --   -0.42592  -0.30727
 Alpha virt. eigenvalues --    0.04863   0.07060   0.07756   0.09431   0.10957
 Alpha virt. eigenvalues --    0.13644   0.18775   0.22401   0.24389   0.25027
 Alpha virt. eigenvalues --    0.26589   0.28286   0.30385   0.32444   0.32749
 Alpha virt. eigenvalues --    0.35564   0.36328   0.37655   0.38788   0.39603
 Alpha virt. eigenvalues --    0.41149   0.52568   0.56047   0.67908   0.79451
 Alpha virt. eigenvalues --    0.81061   0.86234   0.89352   0.94296   0.96639
 Alpha virt. eigenvalues --    0.97852   0.98745   0.99790   1.02261   1.04796
 Alpha virt. eigenvalues --    1.09356   1.10148   1.11159   1.14740   1.17099
 Alpha virt. eigenvalues --    1.22085   1.25496   1.33935   1.38830   1.42208
 Alpha virt. eigenvalues --    1.43450   1.66961   1.67989   1.74767   1.79346
 Alpha virt. eigenvalues --    1.91141   2.01245   2.07451   2.09260   2.11685
 Alpha virt. eigenvalues --    2.20508   2.32928   2.35948   2.45596   3.37219
 Alpha virt. eigenvalues --    3.41195   3.45056   3.47727   3.49097   3.55291
 Alpha virt. eigenvalues --    3.57952   3.63687   3.70640   3.71313   4.53328
 Alpha virt. eigenvalues --    4.57823   4.61505   4.70236   4.91048   4.98482
 Alpha virt. eigenvalues --    5.03585   5.04424   5.05081   5.07464   5.09268
 Alpha virt. eigenvalues --    5.09659   5.11503   5.16385   5.21624   5.24487
 Alpha virt. eigenvalues --    5.41037   5.46302   5.51847   5.57677   5.66302
 Alpha virt. eigenvalues --    5.73081   5.84941   5.99793   6.50853   8.76973
 Alpha virt. eigenvalues --   14.32136  14.35130  14.36653  14.39310  14.40558
 Alpha virt. eigenvalues --   14.45301  14.47471  14.49089  14.60576  14.71119
 Alpha virt. eigenvalues --   17.36124  17.58077  17.90844  50.01846  50.11407
 Alpha virt. eigenvalues --  189.80446
  Beta  occ. eigenvalues --  -89.14416 -19.31754 -19.27742  -8.17181  -6.12228
  Beta  occ. eigenvalues --   -6.11662  -6.10966  -1.20687  -1.13763  -0.77858
  Beta  occ. eigenvalues --   -0.61970  -0.56233  -0.52717  -0.48660  -0.43640
  Beta  occ. eigenvalues --   -0.41305
  Beta virt. eigenvalues --   -0.03654   0.05335   0.07402   0.08236   0.09990
  Beta virt. eigenvalues --    0.12027   0.14138   0.19023   0.22613   0.24728
  Beta virt. eigenvalues --    0.25206   0.27209   0.28600   0.30693   0.32570
  Beta virt. eigenvalues --    0.33913   0.35918   0.36565   0.38552   0.39513
  Beta virt. eigenvalues --    0.40816   0.41777   0.53123   0.56233   0.68425
  Beta virt. eigenvalues --    0.80001   0.81446   0.87107   0.89785   0.94961
  Beta virt. eigenvalues --    0.97003   0.98446   0.99938   1.00609   1.03393
  Beta virt. eigenvalues --    1.05692   1.10056   1.11364   1.12184   1.15193
  Beta virt. eigenvalues --    1.17885   1.23441   1.25975   1.35409   1.39628
  Beta virt. eigenvalues --    1.42547   1.43778   1.69864   1.70218   1.76311
  Beta virt. eigenvalues --    1.80994   1.91920   2.02625   2.08441   2.11522
  Beta virt. eigenvalues --    2.11882   2.20957   2.33376   2.36737   2.46181
  Beta virt. eigenvalues --    3.38122   3.42667   3.47577   3.48606   3.50297
  Beta virt. eigenvalues --    3.57795   3.58918   3.64393   3.71608   3.71793
  Beta virt. eigenvalues --    4.53876   4.58042   4.62366   4.70650   4.91643
  Beta virt. eigenvalues --    4.99104   5.04641   5.05068   5.05770   5.08889
  Beta virt. eigenvalues --    5.11476   5.12754   5.13386   5.17346   5.22609
  Beta virt. eigenvalues --    5.25855   5.41672   5.46820   5.52672   5.58314
  Beta virt. eigenvalues --    5.67249   5.73579   5.86630   6.00376   6.51264
  Beta virt. eigenvalues --    8.77340  14.33454  14.37440  14.39796  14.41349
  Beta virt. eigenvalues --   14.42858  14.47920  14.49106  14.50411  14.61307
  Beta virt. eigenvalues --   14.73031  17.37528  17.58364  17.91171  50.02123
  Beta virt. eigenvalues --   50.12166 189.80754
          Condensed to atoms (all electrons):
              1          2          3          4
     1  S   15.417749  -0.048228   0.116828   0.014777
     2  O   -0.048228   8.443822   0.018371   0.205475
     3  O    0.116828   0.018371   8.239227  -0.002842
     4  H    0.014777   0.205475  -0.002842   0.290441
 Mulliken atomic charges:
              1
     1  S    0.498875
     2  O   -0.619440
     3  O   -0.371584
     4  H    0.492149
 Sum of Mulliken atomic charges =   0.00000
 Mulliken charges with hydrogens summed into heavy atoms:
              1
     1  S    0.498875
     2  O   -0.127291
     3  O   -0.371584
 Sum of Mulliken charges with hydrogens summed into heavy atoms =   0.00000
          Atomic-Atomic Spin Densities.
              1          2          3          4
     1  S    0.949779  -0.108726  -0.201090   0.000847
     2  O   -0.108726   0.158973   0.017705  -0.003426
     3  O   -0.201090   0.017705   0.479697  -0.000929
     4  H    0.000847  -0.003426  -0.000929   0.002789
 Mulliken atomic spin densities:
              1
     1  S    0.640810
     2  O    0.064526
     3  O    0.295383
     4  H   -0.000719
 Sum of Mulliken atomic spin densities =   1.00000
 Electronic spatial extent (au):  <R**2>=            181.9474
 Charge=              0.0000 electrons
 Dipole moment (field-independent basis, Debye):
    X=              1.4307    Y=              0.3284    Z=              0.4098  Tot=              1.5240
 Quadrupole moment (field-independent basis, Debye-Ang):
   XX=            -26.4972   YY=            -21.0145   ZZ=            -23.7209
   XY=              3.6532   XZ=              0.5656   YZ=              0.6375
 Traceless Quadrupole moment (field-independent basis, Debye-Ang):
   XX=             -2.7530   YY=              2.7297   ZZ=              0.0233
   XY=              3.6532   XZ=              0.5656   YZ=              0.6375
 Octapole moment (field-independent basis, Debye-Ang**2):
  XXX=              2.2844  YYY=              5.3648  ZZZ=             -0.0245  XYY=              4.9208
  XXY=              1.7924  XXZ=              0.7848  XZZ=              0.0032  YZZ=              1.1208
  YYZ=              0.7507  XYZ=              0.8228
 Hexadecapole moment (field-independent basis, Debye-Ang**3):
 XXXX=           -148.4038 YYYY=            -48.3451 ZZZZ=            -24.9685 XXXY=              7.4115
 XXXZ=              1.1524 YYYX=              6.8766 YYYZ=              1.0671 ZZZX=              0.2969
 ZZZY=              0.4330 XXYY=            -26.7206 XXZZ=            -28.4132 YYZZ=            -13.3495
 XXYZ=              1.2161 YYXZ=              0.9837 ZZXY=              0.4226
 N-N= 1.105041646847D+02 E-N=-2.279073223481D+03  KE= 8.209670907058D+02
                          Isotropic Fermi Contact Couplings
        Atom                 a.u.       MegaHertz       Gauss      10(-4) cm-1
     1  S(33)              0.10812      37.13581      13.25098      12.38717
     2  O(17)              0.02037     -12.35006      -4.40681      -4.11954
     3  O(17)              0.05206     -31.55910     -11.26107     -10.52698
     4  H(1)              -0.00050      -2.23753      -0.79841      -0.74636
 --------------------------------------------------------
       Center         ----  Spin Dipole Couplings  ----
                      3XX-RR        3YY-RR        3ZZ-RR
 --------------------------------------------------------
     1   Atom       -1.518718     -1.635749      3.154467
     2   Atom       -0.257984     -0.229053      0.487037
     3   Atom       -0.774336     -0.775243      1.549579
     4   Atom       -0.010800      0.021916     -0.011116
 --------------------------------------------------------
                        XY            XZ            YZ
 --------------------------------------------------------
     1   Atom        0.000914     -0.039100      0.160879
     2   Atom        0.013772     -0.000575     -0.089437
     3   Atom        0.002889      0.067998      0.043418
     4   Atom        0.006885      0.001046      0.003517
 --------------------------------------------------------


 ---------------------------------------------------------------------------------
              Anisotropic Spin Dipole Couplings in Principal Axis System
 ---------------------------------------------------------------------------------

       Atom             a.u.   MegaHertz   Gauss  10(-4) cm-1        Axes

              Baa    -1.6412   -67.287   -24.010   -22.445 -0.0182  0.9993 -0.0337
     1 S(33)  Bbb    -1.5190   -62.278   -22.222   -20.774  0.9998  0.0185  0.0077
              Bcc     3.1602   129.565    46.232    43.218 -0.0083  0.0335  0.9994
 
              Baa    -0.2653    19.198     6.850     6.404  0.8805 -0.4708 -0.0553
     2 O(17)  Bbb    -0.2327    16.840     6.009     5.617  0.4741  0.8737  0.1089
              Bcc     0.4980   -36.038   -12.859   -12.021 -0.0030 -0.1221  0.9925
 
              Baa    -0.7778    56.282    20.083    18.774  0.7359 -0.6771 -0.0089
     3 O(17)  Bbb    -0.7746    56.047    19.999    18.695  0.6765  0.7357 -0.0335
              Bcc     1.5524  -112.329   -40.082   -37.469  0.0292  0.0187  0.9994
 
              Baa    -0.0123    -6.574    -2.346    -2.193  0.9177 -0.1466 -0.3691
     4 H(1)   Bbb    -0.0114    -6.066    -2.164    -2.023  0.3445 -0.1688  0.9235
              Bcc     0.0237    12.640     4.510     4.216  0.1977  0.9747  0.1044
 

 ---------------------------------------------------------------------------------

 1\1\ CPUSERV-QCEXNOD10\SP\UwB97XD\6-311+G(3df)\H1O2S1(2)\ROOT\21-Aug-2
 025\0\\#sp wB97XD/6-311+G(3df)\\Optimizacion del hoso\\0,2\S,0,-0.1373
 43,-0.447008,0.011808\O,0,1.352132,0.227971,-0.03754\O,0,-1.236636,0.5
 18438,-0.015537\H,0,1.330521,1.171845,0.190681\\Version=EM64L-G09RevC.
 01\State=2-A\HF=-549.2198\S2=0.755572\S2-1=0.\S2A=0.750022\RMSD=6.448e
 -09\Dipole=0.5637387,0.1259096,0.160846\Quadrupole=-2.0156399,1.998256
 4,0.0173835,2.7386346,0.4272126,0.4709684\PG=C01 [X(H1O2S1)]\\@


 MAN IS THE MEASURE OF ALL THINGS.
  -- PROTAGORAS (5TH CENTURY B.C.)
 Job cpu time:  0 days  0 hours  3 minutes 34.2 seconds.
 File lengths (MBytes):  RWF=     21 Int=      0 D2E=      0 Chk=      2 Scr=      1
 Normal termination of Gaussian 09 at Thu Aug 21 01:11:04 2025.
