 Entering Gaussian System, Link 0=g09
 Initial command:
 /soft/g09.c01/g09/l1.exe /scr/macias/389584.qcexmaster_vib2_0.20/Gau-22553.inp -scrdir=/scr/macias/389584.qcexmaster_vib2_0.20/
 Entering Link 1 = /soft/g09.c01/g09/l1.exe PID=     22556.
  
 Copyright (c) 1988,1990,1992,1993,1995,1998,2003,2009,2011,
            Gaussian, Inc.  All Rights Reserved.
  
 This is part of the Gaussian(R) 09 program.  It is based on
 the Gaussian(R) 03 system (copyright 2003, Gaussian, Inc.),
 the Gaussian(R) 98 system (copyright 1998, Gaussian, Inc.),
 the Gaussian(R) 94 system (copyright 1995, Gaussian, Inc.),
 the Gaussian 92(TM) system (copyright 1992, Gaussian, Inc.),
 the Gaussian 90(TM) system (copyright 1990, Gaussian, Inc.),
 the Gaussian 88(TM) system (copyright 1988, Gaussian, Inc.),
 the Gaussian 86(TM) system (copyright 1986, Carnegie Mellon
 University), and the Gaussian 82(TM) system (copyright 1983,
 Carnegie Mellon University). Gaussian is a federally registered
 trademark of Gaussian, Inc.
  
 This software contains proprietary and confidential information,
 including trade secrets, belonging to Gaussian, Inc.
  
 This software is provided under written license and may be
 used, copied, transmitted, or stored only in accord with that
 written license.
  
 The following legend is applicable only to US Government
 contracts under FAR:
  
                    RESTRICTED RIGHTS LEGEND
  
 Use, reproduction and disclosure by the US Government is
 subject to restrictions as set forth in subparagraphs (a)
 and (c) of the Commercial Computer Software - Restricted
 Rights clause in FAR 52.227-19.
  
 Gaussian, Inc.
 340 Quinnipiac St., Bldg. 40, Wallingford CT 06492
  
  
 ---------------------------------------------------------------
 Warning -- This program may not be used in any manner that
 competes with the business of Gaussian, Inc. or will provide
 assistance to any competitor of Gaussian, Inc.  The licensee
 of this program is prohibited from giving any competitor of
 Gaussian, Inc. access to this program.  By using this program,
 the user acknowledges that Gaussian, Inc. is engaged in the
 business of creating and licensing software in the field of
 computational chemistry and represents and warrants to the
 licensee that it is not a competitor of Gaussian, Inc. and that
 it will not use this program in any manner prohibited above.
 ---------------------------------------------------------------
  

 Cite this work as:
 Gaussian 09, Revision C.01,
 M. J. Frisch, G. W. Trucks, H. B. Schlegel, G. E. Scuseria, 
 M. A. Robb, J. R. Cheeseman, G. Scalmani, V. Barone, B. Mennucci, 
 G. A. Petersson, H. Nakatsuji, M. Caricato, X. Li, H. P. Hratchian, 
 A. F. Izmaylov, J. Bloino, G. Zheng, J. L. Sonnenberg, M. Hada, 
 M. Ehara, K. Toyota, R. Fukuda, J. Hasegawa, M. Ishida, T. Nakajima, 
 Y. Honda, O. Kitao, H. Nakai, T. Vreven, J. A. Montgomery, Jr., 
 J. E. Peralta, F. Ogliaro, M. Bearpark, J. J. Heyd, E. Brothers, 
 K. N. Kudin, V. N. Staroverov, T. Keith, R. Kobayashi, J. Normand, 
 K. Raghavachari, A. Rendell, J. C. Burant, S. S. Iyengar, J. Tomasi, 
 M. Cossi, N. Rega, J. M. Millam, M. Klene, J. E. Knox, J. B. Cross, 
 V. Bakken, C. Adamo, J. Jaramillo, R. Gomperts, R. E. Stratmann, 
 O. Yazyev, A. J. Austin, R. Cammi, C. Pomelli, J. W. Ochterski, 
 R. L. Martin, K. Morokuma, V. G. Zakrzewski, G. A. Voth, 
 P. Salvador, J. J. Dannenberg, S. Dapprich, A. D. Daniels, 
 O. Farkas, J. B. Foresman, J. V. Ortiz, J. Cioslowski, 
 and D. J. Fox, Gaussian, Inc., Wallingford CT, 2010.
 
  
 -----  Compilado por  -----------------------------------------
  
  Servicio de Calculo | Servicio de Informatica U. de Valencia
     calculo@uv.es    |  E-46100 Burjassot (Valencia) SPAIN
  
 ---------------------------------------------------------------
  
 ******************************************
 Gaussian 09:  EM64L-G09RevC.01 23-Sep-2011
                21-Aug-2025 
 ******************************************
 %chk=opt_freq.chk
 %nproc=6
 Will use up to    6 processors via shared memory.
 %mem=20GB
 Default route:  CacheSize=131072
 -----------------------
 #sp wB97XD/6-311+G(3df)
 -----------------------
 1/4=131072,38=1/1;
 2/4=131072,12=2,17=6,18=5,40=1/2;
 3/4=131072,5=4,6=6,7=16,11=2,16=1,25=1,30=1,74=-58/1,2,3;
 4/4=131072/1;
 5/4=131072,5=2,38=5/2;
 6/4=131072,7=2,8=2,9=2,10=2,28=1/1;
 99/4=131072,5=1,9=1/99;
 ---------------------
 Optimizacion del hoso
 ---------------------
 Charge =  0 Multiplicity = 2
 Symbolic Z-Matrix:
 S                    -0.13684  -0.43801   0.01031 
 O                     1.36613   0.21847  -0.03504 
 O                    -1.25364   0.50944  -0.01404 
 H                     1.36552   1.17285   0.16768 
 
                          Input orientation:                          
 ---------------------------------------------------------------------
 Center     Atomic      Atomic             Coordinates (Angstroms)
 Number     Number       Type             X           Y           Z
 ---------------------------------------------------------------------
      1         16           0       -0.136843   -0.438008    0.010308
      2          8           0        1.366132    0.218471   -0.035040
      3          8           0       -1.253636    0.509438   -0.014037
      4          1           0        1.365521    1.172845    0.167681
 ---------------------------------------------------------------------
                    Distance matrix (angstroms):
                    1          2          3          4
     1  S    0.000000
     2  O    1.640718   0.000000
     3  O    1.464743   2.635960   0.000000
     4  H    2.208328   0.975667   2.707972   0.000000
 Stoichiometry    HO2S(2)
 Framework group  C1[X(HO2S)]
 Deg. of freedom     6
 Full point group                 C1      NOp   1
 Largest Abelian subgroup         C1      NOp   1
 Largest concise Abelian subgroup C1      NOp   1
                         Standard orientation:                         
 ---------------------------------------------------------------------
 Center     Atomic      Atomic             Coordinates (Angstroms)
 Number     Number       Type             X           Y           Z
 ---------------------------------------------------------------------
      1         16           0       -0.136063   -0.438607    0.012327
      2          8           0        1.362287    0.228444   -0.031771
      3          8           0       -1.259496    0.500899   -0.014151
      4          1           0        1.354685    1.182958    0.170148
 ---------------------------------------------------------------------
 Rotational constants (GHZ):     40.8146414      8.7773243      7.2338382
 Standard basis: 6-311+G(3df) (5D, 7F)
 There are   128 symmetry adapted basis functions of A   symmetry.
 Integral buffers will be    131072 words long.
 Raffenetti 2 integral format.
 Two-electron integral symmetry is turned on.
   128 basis functions,   193 primitive gaussians,   146 cartesian basis functions
    17 alpha electrons       16 beta electrons
       nuclear repulsion energy       110.1115062343 Hartrees.
 NAtoms=    4 NActive=    4 NUniq=    4 SFac= 1.00D+00 NAtFMM=   60 NAOKFM=F Big=F
 Nuclear repulsion after empirical dispersion term =      110.1112124542 Hartrees.
 One-electron integrals computed using PRISM.
 NBasis=   128 RedAO= T  NBF=   128
 NBsUse=   128 1.00D-06 NBFU=   128
 Harris functional with IExCor= 4639 diagonalized for initial guess.
 ExpMin= 4.05D-02 ExpMax= 9.34D+04 ExpMxC= 3.17D+03 IAcc=2 IRadAn=         4 AccDes= 0.00D+00
 HarFok:  IExCor= 4639 AccDes= 0.00D+00 IRadAn=         4 IDoV= 1
 ScaDFX=  1.000000  1.000000  1.000000  1.000000
 FoFCou: FMM=F IPFlag=           0 FMFlag=      100000 FMFlg1=           0
         NFxFlg=           0 DoJE=T BraDBF=F KetDBF=T FulRan=T
         Omega=  0.000000  0.000000  1.000000  0.000000  0.000000 ICntrl=     500 IOpCl=  0
         NMat0=    1 NMatS0=    1 NMatT0=    0 NMatD0=    1 NMtDS0=    0 NMtDT0=    0
         I1Cent=           4 NGrid=           0.
 Petite list used in FoFCou.
 Initial guess orbital symmetries:
 Alpha Orbitals:
       Occupied  (A) (A) (A) (A) (A) (A) (A) (A) (A) (A) (A) (A)
                 (A) (A) (A) (A) (A)
       Virtual   (A) (A) (A) (A) (A) (A) (A) (A) (A) (A) (A) (A)
                 (A) (A) (A) (A) (A) (A) (A) (A) (A) (A) (A) (A)
                 (A) (A) (A) (A) (A) (A) (A) (A) (A) (A) (A) (A)
                 (A) (A) (A) (A) (A) (A) (A) (A) (A) (A) (A) (A)
                 (A) (A) (A) (A) (A) (A) (A) (A) (A) (A) (A) (A)
                 (A) (A) (A) (A) (A) (A) (A) (A) (A) (A) (A) (A)
                 (A) (A) (A) (A) (A) (A) (A) (A) (A) (A) (A) (A)
                 (A) (A) (A) (A) (A) (A) (A) (A) (A) (A) (A) (A)
                 (A) (A) (A) (A) (A) (A) (A) (A) (A) (A) (A) (A)
                 (A) (A) (A)
 Beta  Orbitals:
       Occupied  (A) (A) (A) (A) (A) (A) (A) (A) (A) (A) (A) (A)
                 (A) (A) (A) (A)
       Virtual   (A) (A) (A) (A) (A) (A) (A) (A) (A) (A) (A) (A)
                 (A) (A) (A) (A) (A) (A) (A) (A) (A) (A) (A) (A)
                 (A) (A) (A) (A) (A) (A) (A) (A) (A) (A) (A) (A)
                 (A) (A) (A) (A) (A) (A) (A) (A) (A) (A) (A) (A)
                 (A) (A) (A) (A) (A) (A) (A) (A) (A) (A) (A) (A)
                 (A) (A) (A) (A) (A) (A) (A) (A) (A) (A) (A) (A)
                 (A) (A) (A) (A) (A) (A) (A) (A) (A) (A) (A) (A)
                 (A) (A) (A) (A) (A) (A) (A) (A) (A) (A) (A) (A)
                 (A) (A) (A) (A) (A) (A) (A) (A) (A) (A) (A) (A)
                 (A) (A) (A) (A)
 The electronic state of the initial guess is 2-A.
 Initial guess <Sx>= 0.0000 <Sy>= 0.0000 <Sz>= 0.5000 <S**2>= 0.7500 S= 0.5000
 Requested convergence on RMS density matrix=1.00D-08 within 128 cycles.
 Requested convergence on MAX density matrix=1.00D-06.
 Requested convergence on             energy=1.00D-06.
 No special actions if energy rises.
 FoFJK:  IHMeth= 1 ICntrl=     0 DoSepK=T KAlg= 1 I1Cent= 0 FoldK=F
 FoFJK:  IHMeth= 1 ICntrl=     0 DoSepK=T KAlg= 1 I1Cent= 0 FoldK=F
 FoFJK:  IHMeth= 1 ICntrl=     0 DoSepK=T KAlg= 1 I1Cent= 0 FoldK=F
 FoFJK:  IHMeth= 1 ICntrl=     0 DoSepK=T KAlg= 1 I1Cent= 0 FoldK=F
 FoFJK:  IHMeth= 1 ICntrl=     0 DoSepK=T KAlg= 1 I1Cent= 0 FoldK=F
 FoFJK:  IHMeth= 1 ICntrl=     0 DoSepK=T KAlg= 1 I1Cent= 0 FoldK=F
 FoFJK:  IHMeth= 1 ICntrl=     0 DoSepK=T KAlg= 1 I1Cent= 0 FoldK=F
 FoFJK:  IHMeth= 1 ICntrl=     0 DoSepK=T KAlg= 1 I1Cent= 0 FoldK=F
 FoFJK:  IHMeth= 1 ICntrl=     0 DoSepK=T KAlg= 1 I1Cent= 0 FoldK=F
 FoFJK:  IHMeth= 1 ICntrl=     0 DoSepK=T KAlg= 1 I1Cent= 0 FoldK=F
 FoFJK:  IHMeth= 1 ICntrl=     0 DoSepK=T KAlg= 1 I1Cent= 0 FoldK=F
 FoFJK:  IHMeth= 1 ICntrl=     0 DoSepK=T KAlg= 1 I1Cent= 0 FoldK=F
 FoFJK:  IHMeth= 1 ICntrl=     0 DoSepK=T KAlg= 1 I1Cent= 0 FoldK=F
 FoFJK:  IHMeth= 1 ICntrl=     0 DoSepK=T KAlg= 1 I1Cent= 0 FoldK=F
 FoFJK:  IHMeth= 1 ICntrl=     0 DoSepK=T KAlg= 1 I1Cent= 0 FoldK=F
 SCF Done:  E(UwB97XD) =  -549.218656430     A.U. after   15 cycles
             Convg  =    0.6686D-08             -V/T =  2.0018
 <Sx>= 0.0000 <Sy>= 0.0000 <Sz>= 0.5000 <S**2>= 0.7556 S= 0.5028
 <L.S>= 0.000000000000E+00
 Annihilation of the first spin contaminant:
 S**2 before annihilation     0.7556,   after     0.7500

 **********************************************************************

            Population analysis using the SCF density.

 **********************************************************************

 Orbital symmetries:
 Alpha Orbitals:
       Occupied  (A) (A) (A) (A) (A) (A) (A) (A) (A) (A) (A) (A)
                 (A) (A) (A) (A) (A)
       Virtual   (A) (A) (A) (A) (A) (A) (A) (A) (A) (A) (A) (A)
                 (A) (A) (A) (A) (A) (A) (A) (A) (A) (A) (A) (A)
                 (A) (A) (A) (A) (A) (A) (A) (A) (A) (A) (A) (A)
                 (A) (A) (A) (A) (A) (A) (A) (A) (A) (A) (A) (A)
                 (A) (A) (A) (A) (A) (A) (A) (A) (A) (A) (A) (A)
                 (A) (A) (A) (A) (A) (A) (A) (A) (A) (A) (A) (A)
                 (A) (A) (A) (A) (A) (A) (A) (A) (A) (A) (A) (A)
                 (A) (A) (A) (A) (A) (A) (A) (A) (A) (A) (A) (A)
                 (A) (A) (A) (A) (A) (A) (A) (A) (A) (A) (A) (A)
                 (A) (A) (A)
 Beta  Orbitals:
       Occupied  (A) (A) (A) (A) (A) (A) (A) (A) (A) (A) (A) (A)
                 (A) (A) (A) (A)
       Virtual   (A) (A) (A) (A) (A) (A) (A) (A) (A) (A) (A) (A)
                 (A) (A) (A) (A) (A) (A) (A) (A) (A) (A) (A) (A)
                 (A) (A) (A) (A) (A) (A) (A) (A) (A) (A) (A) (A)
                 (A) (A) (A) (A) (A) (A) (A) (A) (A) (A) (A) (A)
                 (A) (A) (A) (A) (A) (A) (A) (A) (A) (A) (A) (A)
                 (A) (A) (A) (A) (A) (A) (A) (A) (A) (A) (A) (A)
                 (A) (A) (A) (A) (A) (A) (A) (A) (A) (A) (A) (A)
                 (A) (A) (A) (A) (A) (A) (A) (A) (A) (A) (A) (A)
                 (A) (A) (A) (A) (A) (A) (A) (A) (A) (A) (A) (A)
                 (A) (A) (A) (A)
 The electronic state is 2-A.
 Alpha  occ. eigenvalues --  -89.14788 -19.32091 -19.28736  -8.17498  -6.12428
 Alpha  occ. eigenvalues --   -6.12185  -6.11844  -1.21627  -1.15239  -0.80089
 Alpha  occ. eigenvalues --   -0.63230  -0.56865  -0.56292  -0.50327  -0.47644
 Alpha  occ. eigenvalues --   -0.42586  -0.30695
 Alpha virt. eigenvalues --    0.04720   0.07149   0.07760   0.09452   0.10635
 Alpha virt. eigenvalues --    0.13758   0.18689   0.22355   0.24361   0.25033
 Alpha virt. eigenvalues --    0.26628   0.28354   0.30415   0.32447   0.32696
 Alpha virt. eigenvalues --    0.35433   0.36155   0.37670   0.38694   0.39526
 Alpha virt. eigenvalues --    0.41137   0.53069   0.55723   0.67777   0.79718
 Alpha virt. eigenvalues --    0.80997   0.85831   0.90066   0.94461   0.96686
 Alpha virt. eigenvalues --    0.98140   0.99223   0.99519   1.02266   1.04559
 Alpha virt. eigenvalues --    1.09114   1.10120   1.10898   1.14924   1.17100
 Alpha virt. eigenvalues --    1.22055   1.24746   1.34072   1.38996   1.42646
 Alpha virt. eigenvalues --    1.43846   1.66985   1.67912   1.74777   1.78677
 Alpha virt. eigenvalues --    1.90603   2.01001   2.06774   2.09369   2.11587
 Alpha virt. eigenvalues --    2.20429   2.33531   2.35507   2.45819   3.37374
 Alpha virt. eigenvalues --    3.41278   3.44945   3.47798   3.48979   3.55195
 Alpha virt. eigenvalues --    3.58429   3.63453   3.70381   3.71096   4.53368
 Alpha virt. eigenvalues --    4.57989   4.61421   4.69949   4.91095   4.98498
 Alpha virt. eigenvalues --    5.03584   5.04556   5.05273   5.07869   5.09325
 Alpha virt. eigenvalues --    5.09658   5.11623   5.16262   5.20771   5.24266
 Alpha virt. eigenvalues --    5.40737   5.45966   5.51266   5.57417   5.65902
 Alpha virt. eigenvalues --    5.73274   5.84623   5.99755   6.47995   8.76468
 Alpha virt. eigenvalues --   14.32162  14.35145  14.36449  14.39388  14.40362
 Alpha virt. eigenvalues --   14.45225  14.47589  14.49036  14.59650  14.71203
 Alpha virt. eigenvalues --   17.36071  17.56756  17.90908  50.01619  50.11409
 Alpha virt. eigenvalues --  189.79500
  Beta  occ. eigenvalues --  -89.14398 -19.31819 -19.27850  -8.17151  -6.12197
  Beta  occ. eigenvalues --   -6.11636  -6.10931  -1.20415  -1.13779  -0.77828
  Beta  occ. eigenvalues --   -0.61947  -0.56096  -0.52552  -0.48685  -0.43669
  Beta  occ. eigenvalues --   -0.41278
  Beta virt. eigenvalues --   -0.03621   0.05217   0.07482   0.08268   0.09995
  Beta virt. eigenvalues --    0.11647   0.14225   0.18933   0.22553   0.24702
  Beta virt. eigenvalues --    0.25210   0.27307   0.28641   0.30730   0.32561
  Beta virt. eigenvalues --    0.33859   0.35887   0.36328   0.38548   0.39309
  Beta virt. eigenvalues --    0.40849   0.41749   0.53619   0.55897   0.68297
  Beta virt. eigenvalues --    0.80282   0.81393   0.86689   0.90534   0.95135
  Beta virt. eigenvalues --    0.97051   0.98673   1.00101   1.00610   1.03534
  Beta virt. eigenvalues --    1.05501   1.09601   1.11241   1.12154   1.15390
  Beta virt. eigenvalues --    1.17826   1.23421   1.25243   1.35572   1.39793
  Beta virt. eigenvalues --    1.43005   1.44148   1.69801   1.70240   1.76289
  Beta virt. eigenvalues --    1.80364   1.91380   2.02369   2.07803   2.11555
  Beta virt. eigenvalues --    2.11826   2.20872   2.33974   2.36248   2.46440
  Beta virt. eigenvalues --    3.38278   3.42801   3.47447   3.48743   3.50075
  Beta virt. eigenvalues --    3.57737   3.59457   3.64148   3.71060   3.71843
  Beta virt. eigenvalues --    4.53920   4.58233   4.62277   4.70339   4.91692
  Beta virt. eigenvalues --    4.99144   5.04711   5.05188   5.05997   5.09371
  Beta virt. eigenvalues --    5.11412   5.12743   5.13423   5.17231   5.21804
  Beta virt. eigenvalues --    5.25648   5.41387   5.46482   5.52105   5.58010
  Beta virt. eigenvalues --    5.66871   5.73764   5.86320   6.00361   6.48408
  Beta virt. eigenvalues --    8.76838  14.33490  14.37516  14.39601  14.41481
  Beta virt. eigenvalues --   14.42578  14.48002  14.49193  14.50274  14.60426
  Beta virt. eigenvalues --   14.73082  17.37479  17.57042  17.91236  50.01908
  Beta virt. eigenvalues --   50.12164 189.79808
          Condensed to atoms (all electrons):
              1          2          3          4
     1  S   15.437901  -0.058955   0.109444   0.016509
     2  O   -0.058955   8.452345   0.021354   0.203657
     3  O    0.109444   0.021354   8.240278  -0.003461
     4  H    0.016509   0.203657  -0.003461   0.292381
 Mulliken atomic charges:
              1
     1  S    0.495102
     2  O   -0.618401
     3  O   -0.367615
     4  H    0.490914
 Sum of Mulliken atomic charges =   0.00000
 Mulliken charges with hydrogens summed into heavy atoms:
              1
     1  S    0.495102
     2  O   -0.127487
     3  O   -0.367615
 Sum of Mulliken charges with hydrogens summed into heavy atoms =   0.00000
          Atomic-Atomic Spin Densities.
              1          2          3          4
     1  S    0.950646  -0.109749  -0.201880   0.001234
     2  O   -0.109749   0.161888   0.017233  -0.003164
     3  O   -0.201880   0.017233   0.480394  -0.001001
     4  H    0.001234  -0.003164  -0.001001   0.001725
 Mulliken atomic spin densities:
              1
     1  S    0.640251
     2  O    0.066209
     3  O    0.294745
     4  H   -0.001205
 Sum of Mulliken atomic spin densities =   1.00000
 Electronic spatial extent (au):  <R**2>=            183.6947
 Charge=              0.0000 electrons
 Dipole moment (field-independent basis, Debye):
    X=              1.4741    Y=              0.4041    Z=              0.3655  Tot=              1.5716
 Quadrupole moment (field-independent basis, Debye-Ang):
   XX=            -26.4612   YY=            -20.9953   ZZ=            -23.7653
   XY=              3.7396   XZ=              0.5148   YZ=              0.5659
 Traceless Quadrupole moment (field-independent basis, Debye-Ang):
   XX=             -2.7206   YY=              2.7453   ZZ=             -0.0247
   XY=              3.7396   XZ=              0.5148   YZ=              0.5659
 Octapole moment (field-independent basis, Debye-Ang**2):
  XXX=              2.5445  YYY=              5.3947  ZZZ=             -0.0252  XYY=              5.0362
  XXY=              2.0293  XXZ=              0.7406  XZZ=             -0.0458  YZZ=              1.0884
  YYZ=              0.6689  XYZ=              0.7476
 Hexadecapole moment (field-independent basis, Debye-Ang**3):
 XXXX=           -151.0170 YYYY=            -47.3101 ZZZZ=            -24.9925 XXXY=              7.8950
 XXXZ=              1.1018 YYYX=              7.0772 YYYZ=              0.9490 ZZZX=              0.2668
 ZZZY=              0.3798 XXYY=            -26.7925 XXZZ=            -28.9760 YYZZ=            -13.1959
 XXYZ=              1.1280 YYXZ=              0.8933 ZZXY=              0.4095
 N-N= 1.101112124542D+02 E-N=-2.277873433248D+03  KE= 8.209313908890D+02
                          Isotropic Fermi Contact Couplings
        Atom                 a.u.       MegaHertz       Gauss      10(-4) cm-1
     1  S(33)              0.10961      37.64878      13.43402      12.55828
     2  O(17)              0.02019     -12.24036      -4.36767      -4.08295
     3  O(17)              0.05201     -31.52838     -11.25011     -10.51674
     4  H(1)              -0.00083      -3.71545      -1.32577      -1.23934
 --------------------------------------------------------
       Center         ----  Spin Dipole Couplings  ----
                      3XX-RR        3YY-RR        3ZZ-RR
 --------------------------------------------------------
     1   Atom       -1.522414     -1.642181      3.164595
     2   Atom       -0.263591     -0.236736      0.500328
     3   Atom       -0.775478     -0.776251      1.551730
     4   Atom       -0.011078      0.022133     -0.011055
 --------------------------------------------------------
                        XY            XZ            YZ
 --------------------------------------------------------
     1   Atom        0.002594     -0.033554      0.152175
     2   Atom        0.015392     -0.003807     -0.080756
     3   Atom        0.001880      0.062790      0.042682
     4   Atom        0.007529      0.000947      0.003066
 --------------------------------------------------------


 ---------------------------------------------------------------------------------
              Anisotropic Spin Dipole Couplings in Principal Axis System
 ---------------------------------------------------------------------------------

       Atom             a.u.   MegaHertz   Gauss  10(-4) cm-1        Axes

              Baa    -1.6471   -67.530   -24.096   -22.525 -0.0293  0.9991 -0.0318
     1 S(33)  Bbb    -1.5225   -62.423   -22.274   -20.822  0.9995  0.0296  0.0062
              Bcc     3.1696   129.953    46.370    43.348 -0.0071  0.0316  0.9995
 
              Baa    -0.2720    19.681     7.023     6.565  0.8719 -0.4875 -0.0467
     2 O(17)  Bbb    -0.2371    17.158     6.122     5.723  0.4897  0.8664  0.0974
              Bcc     0.5091   -36.839   -13.145   -12.288 -0.0070 -0.1078  0.9941
 
              Baa    -0.7778    56.284    20.083    18.774  0.7395 -0.6731 -0.0076
     3 O(17)  Bbb    -0.7764    56.178    20.046    18.739  0.6726  0.7393 -0.0317
              Bcc     1.5542  -112.461   -40.129   -37.513  0.0270  0.0183  0.9995
 
              Baa    -0.0128    -6.808    -2.429    -2.271  0.9628 -0.1909 -0.1913
     4 H(1)   Bbb    -0.0113    -6.025    -2.150    -2.010  0.1689 -0.1277  0.9773
              Bcc     0.0241    12.833     4.579     4.281  0.2110  0.9733  0.0907
 

 ---------------------------------------------------------------------------------

 1\1\ CPUSERV-QCEXNOD11\SP\UwB97XD\6-311+G(3df)\H1O2S1(2)\ROOT\21-Aug-2
 025\0\\#sp wB97XD/6-311+G(3df)\\Optimizacion del hoso\\0,2\S,0,-0.1368
 43,-0.438008,0.010308\O,0,1.366132,0.218471,-0.03504\O,0,-1.253636,0.5
 09438,-0.014037\H,0,1.365521,1.172845,0.167681\\Version=EM64L-G09RevC.
 01\State=2-A\HF=-549.2186564\S2=0.755611\S2-1=0.\S2A=0.750022\RMSD=6.6
 86e-09\Dipole=0.5812272,0.1547449,0.1432479\Quadrupole=-1.9822577,2.00
 08545,-0.0185969,2.8089187,0.3904507,0.41634\PG=C01 [X(H1O2S1)]\\@


 THERE IS AN OLD, OLD RECIPE IN MAINE FOR STEWING COOT. PLACE THE
 BIRD IN A KETTLE OF WATER WITH A RED BUILDING BRICK FREE OF MORTAR AND
 BLEMISHES. PARBOIL THE COOT AND BRICK TOGETHER FOR THREE HOURS.
 POUR OFF THE WATER, REFILL THE KETTLE, AND AGAIN PARBOIL FOR THREE HOURS.
 ONCE AGAIN POUR OFF THE WATER, FOR THE LAST TIME ADD FRESH WATER,
 AND LET THE COOT AND BRICK SIMMER TOGETHER OVERNIGHT. IN THE MORNING,
 THROW AWAY THE COOT AND EAT THE BRICK.
 Job cpu time:  0 days  0 hours  3 minutes 18.2 seconds.
 File lengths (MBytes):  RWF=     21 Int=      0 D2E=      0 Chk=      2 Scr=      1
 Normal termination of Gaussian 09 at Thu Aug 21 00:36:52 2025.
