 Entering Gaussian System, Link 0=g09
 Initial command:
 /soft/g09.c01/g09/l1.exe /scr/macias/389590.qcexmaster_vib3_0.05/Gau-17153.inp -scrdir=/scr/macias/389590.qcexmaster_vib3_0.05/
 Entering Link 1 = /soft/g09.c01/g09/l1.exe PID=     17162.
  
 Copyright (c) 1988,1990,1992,1993,1995,1998,2003,2009,2011,
            Gaussian, Inc.  All Rights Reserved.
  
 This is part of the Gaussian(R) 09 program.  It is based on
 the Gaussian(R) 03 system (copyright 2003, Gaussian, Inc.),
 the Gaussian(R) 98 system (copyright 1998, Gaussian, Inc.),
 the Gaussian(R) 94 system (copyright 1995, Gaussian, Inc.),
 the Gaussian 92(TM) system (copyright 1992, Gaussian, Inc.),
 the Gaussian 90(TM) system (copyright 1990, Gaussian, Inc.),
 the Gaussian 88(TM) system (copyright 1988, Gaussian, Inc.),
 the Gaussian 86(TM) system (copyright 1986, Carnegie Mellon
 University), and the Gaussian 82(TM) system (copyright 1983,
 Carnegie Mellon University). Gaussian is a federally registered
 trademark of Gaussian, Inc.
  
 This software contains proprietary and confidential information,
 including trade secrets, belonging to Gaussian, Inc.
  
 This software is provided under written license and may be
 used, copied, transmitted, or stored only in accord with that
 written license.
  
 The following legend is applicable only to US Government
 contracts under FAR:
  
                    RESTRICTED RIGHTS LEGEND
  
 Use, reproduction and disclosure by the US Government is
 subject to restrictions as set forth in subparagraphs (a)
 and (c) of the Commercial Computer Software - Restricted
 Rights clause in FAR 52.227-19.
  
 Gaussian, Inc.
 340 Quinnipiac St., Bldg. 40, Wallingford CT 06492
  
  
 ---------------------------------------------------------------
 Warning -- This program may not be used in any manner that
 competes with the business of Gaussian, Inc. or will provide
 assistance to any competitor of Gaussian, Inc.  The licensee
 of this program is prohibited from giving any competitor of
 Gaussian, Inc. access to this program.  By using this program,
 the user acknowledges that Gaussian, Inc. is engaged in the
 business of creating and licensing software in the field of
 computational chemistry and represents and warrants to the
 licensee that it is not a competitor of Gaussian, Inc. and that
 it will not use this program in any manner prohibited above.
 ---------------------------------------------------------------
  

 Cite this work as:
 Gaussian 09, Revision C.01,
 M. J. Frisch, G. W. Trucks, H. B. Schlegel, G. E. Scuseria, 
 M. A. Robb, J. R. Cheeseman, G. Scalmani, V. Barone, B. Mennucci, 
 G. A. Petersson, H. Nakatsuji, M. Caricato, X. Li, H. P. Hratchian, 
 A. F. Izmaylov, J. Bloino, G. Zheng, J. L. Sonnenberg, M. Hada, 
 M. Ehara, K. Toyota, R. Fukuda, J. Hasegawa, M. Ishida, T. Nakajima, 
 Y. Honda, O. Kitao, H. Nakai, T. Vreven, J. A. Montgomery, Jr., 
 J. E. Peralta, F. Ogliaro, M. Bearpark, J. J. Heyd, E. Brothers, 
 K. N. Kudin, V. N. Staroverov, T. Keith, R. Kobayashi, J. Normand, 
 K. Raghavachari, A. Rendell, J. C. Burant, S. S. Iyengar, J. Tomasi, 
 M. Cossi, N. Rega, J. M. Millam, M. Klene, J. E. Knox, J. B. Cross, 
 V. Bakken, C. Adamo, J. Jaramillo, R. Gomperts, R. E. Stratmann, 
 O. Yazyev, A. J. Austin, R. Cammi, C. Pomelli, J. W. Ochterski, 
 R. L. Martin, K. Morokuma, V. G. Zakrzewski, G. A. Voth, 
 P. Salvador, J. J. Dannenberg, S. Dapprich, A. D. Daniels, 
 O. Farkas, J. B. Foresman, J. V. Ortiz, J. Cioslowski, 
 and D. J. Fox, Gaussian, Inc., Wallingford CT, 2010.
 
  
 -----  Compilado por  -----------------------------------------
  
  Servicio de Calculo | Servicio de Informatica U. de Valencia
     calculo@uv.es    |  E-46100 Burjassot (Valencia) SPAIN
  
 ---------------------------------------------------------------
  
 ******************************************
 Gaussian 09:  EM64L-G09RevC.01 23-Sep-2011
                21-Aug-2025 
 ******************************************
 %chk=opt_freq.chk
 %nproc=6
 Will use up to    6 processors via shared memory.
 %mem=20GB
 Default route:  CacheSize=131072
 -----------------------
 #sp wB97XD/6-311+G(3df)
 -----------------------
 1/4=131072,38=1/1;
 2/4=131072,12=2,17=6,18=5,40=1/2;
 3/4=131072,5=4,6=6,7=16,11=2,16=1,25=1,30=1,74=-58/1,2,3;
 4/4=131072/1;
 5/4=131072,5=2,38=5/2;
 6/4=131072,7=2,8=2,9=2,10=2,28=1/1;
 99/4=131072,5=1,9=1/99;
 ---------------------
 Optimizacion del hoso
 ---------------------
 Charge =  0 Multiplicity = 2
 Symbolic Z-Matrix:
 S                    -0.12234  -0.46201   0.01531 
 O                     1.27463   0.23747  -0.04254 
 O                    -1.18414   0.54044  -0.01954 
 H                     1.23902   1.15885   0.24768 
 
                          Input orientation:                          
 ---------------------------------------------------------------------
 Center     Atomic      Atomic             Coordinates (Angstroms)
 Number     Number       Type             X           Y           Z
 ---------------------------------------------------------------------
      1         16           0       -0.122343   -0.462008    0.015308
      2          8           0        1.274632    0.237471   -0.042540
      3          8           0       -1.184136    0.540438   -0.019537
      4          1           0        1.239021    1.158845    0.247681
 ---------------------------------------------------------------------
                    Distance matrix (angstroms):
                    1          2          3          4
     1  S    0.000000
     2  O    1.563380   0.000000
     3  O    1.460656   2.477470   0.000000
     4  H    2.129430   0.966657   2.515059   0.000000
 Stoichiometry    HO2S(2)
 Framework group  C1[X(HO2S)]
 Deg. of freedom     6
 Full point group                 C1      NOp   1
 Largest Abelian subgroup         C1      NOp   1
 Largest concise Abelian subgroup C1      NOp   1
                         Standard orientation:                         
 ---------------------------------------------------------------------
 Center     Atomic      Atomic             Coordinates (Angstroms)
 Number     Number       Type             X           Y           Z
 ---------------------------------------------------------------------
      1         16           0       -0.113516   -0.463974    0.016120
      2          8           0        1.269568    0.262392   -0.044113
      3          8           0       -1.194587    0.517649   -0.018757
      4          1           0        1.216409    1.183257    0.245039
 ---------------------------------------------------------------------
 Rotational constants (GHZ):     36.8724198      9.9794976      7.8774113
 Standard basis: 6-311+G(3df) (5D, 7F)
 There are   128 symmetry adapted basis functions of A   symmetry.
 Integral buffers will be    131072 words long.
 Raffenetti 2 integral format.
 Two-electron integral symmetry is turned on.
   128 basis functions,   193 primitive gaussians,   146 cartesian basis functions
    17 alpha electrons       16 beta electrons
       nuclear repulsion energy       113.4074794619 Hartrees.
 NAtoms=    4 NActive=    4 NUniq=    4 SFac= 1.00D+00 NAtFMM=   60 NAOKFM=F Big=F
 Nuclear repulsion after empirical dispersion term =      113.4072353559 Hartrees.
 One-electron integrals computed using PRISM.
 NBasis=   128 RedAO= T  NBF=   128
 NBsUse=   128 1.00D-06 NBFU=   128
 Harris functional with IExCor= 4639 diagonalized for initial guess.
 ExpMin= 4.05D-02 ExpMax= 9.34D+04 ExpMxC= 3.17D+03 IAcc=2 IRadAn=         4 AccDes= 0.00D+00
 HarFok:  IExCor= 4639 AccDes= 0.00D+00 IRadAn=         4 IDoV= 1
 ScaDFX=  1.000000  1.000000  1.000000  1.000000
 FoFCou: FMM=F IPFlag=           0 FMFlag=      100000 FMFlg1=           0
         NFxFlg=           0 DoJE=T BraDBF=F KetDBF=T FulRan=T
         Omega=  0.000000  0.000000  1.000000  0.000000  0.000000 ICntrl=     500 IOpCl=  0
         NMat0=    1 NMatS0=    1 NMatT0=    0 NMatD0=    1 NMtDS0=    0 NMtDT0=    0
         I1Cent=           4 NGrid=           0.
 Petite list used in FoFCou.
 Initial guess orbital symmetries:
 Alpha Orbitals:
       Occupied  (A) (A) (A) (A) (A) (A) (A) (A) (A) (A) (A) (A)
                 (A) (A) (A) (A) (A)
       Virtual   (A) (A) (A) (A) (A) (A) (A) (A) (A) (A) (A) (A)
                 (A) (A) (A) (A) (A) (A) (A) (A) (A) (A) (A) (A)
                 (A) (A) (A) (A) (A) (A) (A) (A) (A) (A) (A) (A)
                 (A) (A) (A) (A) (A) (A) (A) (A) (A) (A) (A) (A)
                 (A) (A) (A) (A) (A) (A) (A) (A) (A) (A) (A) (A)
                 (A) (A) (A) (A) (A) (A) (A) (A) (A) (A) (A) (A)
                 (A) (A) (A) (A) (A) (A) (A) (A) (A) (A) (A) (A)
                 (A) (A) (A) (A) (A) (A) (A) (A) (A) (A) (A) (A)
                 (A) (A) (A) (A) (A) (A) (A) (A) (A) (A) (A) (A)
                 (A) (A) (A)
 Beta  Orbitals:
       Occupied  (A) (A) (A) (A) (A) (A) (A) (A) (A) (A) (A) (A)
                 (A) (A) (A) (A)
       Virtual   (A) (A) (A) (A) (A) (A) (A) (A) (A) (A) (A) (A)
                 (A) (A) (A) (A) (A) (A) (A) (A) (A) (A) (A) (A)
                 (A) (A) (A) (A) (A) (A) (A) (A) (A) (A) (A) (A)
                 (A) (A) (A) (A) (A) (A) (A) (A) (A) (A) (A) (A)
                 (A) (A) (A) (A) (A) (A) (A) (A) (A) (A) (A) (A)
                 (A) (A) (A) (A) (A) (A) (A) (A) (A) (A) (A) (A)
                 (A) (A) (A) (A) (A) (A) (A) (A) (A) (A) (A) (A)
                 (A) (A) (A) (A) (A) (A) (A) (A) (A) (A) (A) (A)
                 (A) (A) (A) (A) (A) (A) (A) (A) (A) (A) (A) (A)
                 (A) (A) (A) (A)
 The electronic state of the initial guess is 2-A.
 Initial guess <Sx>= 0.0000 <Sy>= 0.0000 <Sz>= 0.5000 <S**2>= 0.7500 S= 0.5000
 Requested convergence on RMS density matrix=1.00D-08 within 128 cycles.
 Requested convergence on MAX density matrix=1.00D-06.
 Requested convergence on             energy=1.00D-06.
 No special actions if energy rises.
 FoFJK:  IHMeth= 1 ICntrl=     0 DoSepK=T KAlg= 1 I1Cent= 0 FoldK=F
 FoFJK:  IHMeth= 1 ICntrl=     0 DoSepK=T KAlg= 1 I1Cent= 0 FoldK=F
 FoFJK:  IHMeth= 1 ICntrl=     0 DoSepK=T KAlg= 1 I1Cent= 0 FoldK=F
 FoFJK:  IHMeth= 1 ICntrl=     0 DoSepK=T KAlg= 1 I1Cent= 0 FoldK=F
 FoFJK:  IHMeth= 1 ICntrl=     0 DoSepK=T KAlg= 1 I1Cent= 0 FoldK=F
 FoFJK:  IHMeth= 1 ICntrl=     0 DoSepK=T KAlg= 1 I1Cent= 0 FoldK=F
 FoFJK:  IHMeth= 1 ICntrl=     0 DoSepK=T KAlg= 1 I1Cent= 0 FoldK=F
 FoFJK:  IHMeth= 1 ICntrl=     0 DoSepK=T KAlg= 1 I1Cent= 0 FoldK=F
 FoFJK:  IHMeth= 1 ICntrl=     0 DoSepK=T KAlg= 1 I1Cent= 0 FoldK=F
 FoFJK:  IHMeth= 1 ICntrl=     0 DoSepK=T KAlg= 1 I1Cent= 0 FoldK=F
 FoFJK:  IHMeth= 1 ICntrl=     0 DoSepK=T KAlg= 1 I1Cent= 0 FoldK=F
 FoFJK:  IHMeth= 1 ICntrl=     0 DoSepK=T KAlg= 1 I1Cent= 0 FoldK=F
 FoFJK:  IHMeth= 1 ICntrl=     0 DoSepK=T KAlg= 1 I1Cent= 0 FoldK=F
 FoFJK:  IHMeth= 1 ICntrl=     0 DoSepK=T KAlg= 1 I1Cent= 0 FoldK=F
 FoFJK:  IHMeth= 1 ICntrl=     0 DoSepK=T KAlg= 1 I1Cent= 0 FoldK=F
 SCF Done:  E(UwB97XD) =  -549.219233311     A.U. after   15 cycles
             Convg  =    0.5387D-08             -V/T =  2.0014
 <Sx>= 0.0000 <Sy>= 0.0000 <Sz>= 0.5000 <S**2>= 0.7555 S= 0.5027
 <L.S>= 0.000000000000E+00
 Annihilation of the first spin contaminant:
 S**2 before annihilation     0.7555,   after     0.7500

 **********************************************************************

            Population analysis using the SCF density.

 **********************************************************************

 Orbital symmetries:
 Alpha Orbitals:
       Occupied  (A) (A) (A) (A) (A) (A) (A) (A) (A) (A) (A) (A)
                 (A) (A) (A) (A) (A)
       Virtual   (A) (A) (A) (A) (A) (A) (A) (A) (A) (A) (A) (A)
                 (A) (A) (A) (A) (A) (A) (A) (A) (A) (A) (A) (A)
                 (A) (A) (A) (A) (A) (A) (A) (A) (A) (A) (A) (A)
                 (A) (A) (A) (A) (A) (A) (A) (A) (A) (A) (A) (A)
                 (A) (A) (A) (A) (A) (A) (A) (A) (A) (A) (A) (A)
                 (A) (A) (A) (A) (A) (A) (A) (A) (A) (A) (A) (A)
                 (A) (A) (A) (A) (A) (A) (A) (A) (A) (A) (A) (A)
                 (A) (A) (A) (A) (A) (A) (A) (A) (A) (A) (A) (A)
                 (A) (A) (A) (A) (A) (A) (A) (A) (A) (A) (A) (A)
                 (A) (A) (A)
 Beta  Orbitals:
       Occupied  (A) (A) (A) (A) (A) (A) (A) (A) (A) (A) (A) (A)
                 (A) (A) (A) (A)
       Virtual   (A) (A) (A) (A) (A) (A) (A) (A) (A) (A) (A) (A)
                 (A) (A) (A) (A) (A) (A) (A) (A) (A) (A) (A) (A)
                 (A) (A) (A) (A) (A) (A) (A) (A) (A) (A) (A) (A)
                 (A) (A) (A) (A) (A) (A) (A) (A) (A) (A) (A) (A)
                 (A) (A) (A) (A) (A) (A) (A) (A) (A) (A) (A) (A)
                 (A) (A) (A) (A) (A) (A) (A) (A) (A) (A) (A) (A)
                 (A) (A) (A) (A) (A) (A) (A) (A) (A) (A) (A) (A)
                 (A) (A) (A) (A) (A) (A) (A) (A) (A) (A) (A) (A)
                 (A) (A) (A) (A) (A) (A) (A) (A) (A) (A) (A) (A)
                 (A) (A) (A) (A)
 The electronic state is 2-A.
 Alpha  occ. eigenvalues --  -89.14319 -19.32516 -19.27544  -8.17132  -6.12075
 Alpha  occ. eigenvalues --   -6.11822  -6.11448  -1.24179  -1.15091  -0.80935
 Alpha  occ. eigenvalues --   -0.63759  -0.58084  -0.57337  -0.49936  -0.47480
 Alpha  occ. eigenvalues --   -0.42285  -0.30070
 Alpha virt. eigenvalues --    0.05278   0.07196   0.07862   0.09392   0.12852
 Alpha virt. eigenvalues --    0.13454   0.19051   0.22309   0.24433   0.25162
 Alpha virt. eigenvalues --    0.26658   0.28269   0.30304   0.32653   0.33164
 Alpha virt. eigenvalues --    0.35841   0.37033   0.38351   0.39324   0.40649
 Alpha virt. eigenvalues --    0.41382   0.52665   0.56273   0.69120   0.78221
 Alpha virt. eigenvalues --    0.80778   0.87008   0.87957   0.93733   0.96320
 Alpha virt. eigenvalues --    0.96787   0.97171   1.00587   1.02629   1.05650
 Alpha virt. eigenvalues --    1.09483   1.10679   1.13996   1.15260   1.17739
 Alpha virt. eigenvalues --    1.24451   1.29440   1.34404   1.38714   1.40995
 Alpha virt. eigenvalues --    1.43722   1.67127   1.69017   1.75255   1.82124
 Alpha virt. eigenvalues --    1.92899   2.02927   2.09597   2.11389   2.16449
 Alpha virt. eigenvalues --    2.21159   2.30181   2.37926   2.45015   3.36716
 Alpha virt. eigenvalues --    3.42469   3.45455   3.47599   3.49617   3.56243
 Alpha virt. eigenvalues --    3.57705   3.63071   3.70858   3.73664   4.53979
 Alpha virt. eigenvalues --    4.57783   4.61881   4.76218   4.92267   4.98006
 Alpha virt. eigenvalues --    5.03142   5.03714   5.04203   5.07025   5.10002
 Alpha virt. eigenvalues --    5.10630   5.11886   5.18680   5.25030   5.26112
 Alpha virt. eigenvalues --    5.43547   5.52752   5.58872   5.62077   5.67366
 Alpha virt. eigenvalues --    5.72863   5.87566   6.03668   6.66339   8.86688
 Alpha virt. eigenvalues --   14.31641  14.36015  14.37928  14.38803  14.41148
 Alpha virt. eigenvalues --   14.46212  14.48353  14.49682  14.65231  14.72243
 Alpha virt. eigenvalues --   17.36974  17.64924  17.93384  50.03119  50.12150
 Alpha virt. eigenvalues --  189.91749
  Beta  occ. eigenvalues --  -89.13934 -19.32252 -19.26683  -8.16786  -6.11845
  Beta  occ. eigenvalues --   -6.11240  -6.10582  -1.23195  -1.13476  -0.78962
  Beta  occ. eigenvalues --   -0.62221  -0.57269  -0.54199  -0.47924  -0.43516
  Beta  occ. eigenvalues --   -0.41017
  Beta virt. eigenvalues --   -0.03069   0.05611   0.07563   0.08276   0.10001
  Beta virt. eigenvalues --    0.13932   0.14203   0.19408   0.22555   0.24749
  Beta virt. eigenvalues --    0.25368   0.27143   0.28658   0.30609   0.32798
  Beta virt. eigenvalues --    0.34304   0.36107   0.37467   0.39066   0.40606
  Beta virt. eigenvalues --    0.41320   0.42068   0.53262   0.56517   0.69616
  Beta virt. eigenvalues --    0.78746   0.81106   0.87484   0.88739   0.94297
  Beta virt. eigenvalues --    0.97015   0.97243   0.98399   1.01399   1.03491
  Beta virt. eigenvalues --    1.06394   1.10455   1.12647   1.14269   1.15912
  Beta virt. eigenvalues --    1.18507   1.25747   1.29931   1.35726   1.39469
  Beta virt. eigenvalues --    1.41338   1.44117   1.70317   1.70928   1.76916
  Beta virt. eigenvalues --    1.83654   1.93635   2.04231   2.11718   2.12044
  Beta virt. eigenvalues --    2.17195   2.21620   2.30719   2.38785   2.45531
  Beta virt. eigenvalues --    3.37594   3.43726   3.47220   3.49237   3.51169
  Beta virt. eigenvalues --    3.58111   3.58910   3.63802   3.71851   3.74186
  Beta virt. eigenvalues --    4.54529   4.57946   4.62730   4.76820   4.92753
  Beta virt. eigenvalues --    4.98583   5.03847   5.04614   5.05002   5.08238
  Beta virt. eigenvalues --    5.12447   5.13487   5.14054   5.19541   5.25969
  Beta virt. eigenvalues --    5.27400   5.44189   5.53314   5.59643   5.62848
  Beta virt. eigenvalues --    5.68107   5.73554   5.89142   6.04162   6.66746
  Beta virt. eigenvalues --    8.87026  14.32928  14.37906  14.40182  14.41730
  Beta virt. eigenvalues --   14.43781  14.48213  14.50185  14.51213  14.65893
  Beta virt. eigenvalues --   14.74165  17.38364  17.65203  17.93706  50.03370
  Beta virt. eigenvalues --   50.12908 189.92052
          Condensed to atoms (all electrons):
              1          2          3          4
     1  S   15.420389  -0.046675   0.134210   0.009449
     2  O   -0.046675   8.411919   0.007562   0.209572
     3  O    0.134210   0.007562   8.257899  -0.000961
     4  H    0.009449   0.209572  -0.000961   0.283478
 Mulliken atomic charges:
              1
     1  S    0.482627
     2  O   -0.582378
     3  O   -0.398710
     4  H    0.498461
 Sum of Mulliken atomic charges =   0.00000
 Mulliken charges with hydrogens summed into heavy atoms:
              1
     1  S    0.482627
     2  O   -0.083917
     3  O   -0.398710
 Sum of Mulliken charges with hydrogens summed into heavy atoms =   0.00000
          Atomic-Atomic Spin Densities.
              1          2          3          4
     1  S    0.971383  -0.122197  -0.201633  -0.000991
     2  O   -0.122197   0.169539   0.021331  -0.005352
     3  O   -0.201633   0.021331   0.469760  -0.000534
     4  H   -0.000991  -0.005352  -0.000534   0.008068
 Mulliken atomic spin densities:
              1
     1  S    0.646562
     2  O    0.063321
     3  O    0.288924
     4  H    0.001192
 Sum of Mulliken atomic spin densities =   1.00000
 Electronic spatial extent (au):  <R**2>=            172.8286
 Charge=              0.0000 electrons
 Dipole moment (field-independent basis, Debye):
    X=              1.6977    Y=              0.2996    Z=              0.5134  Tot=              1.7988
 Quadrupole moment (field-independent basis, Debye-Ang):
   XX=            -26.3511   YY=            -21.0699   ZZ=            -23.5650
   XY=              3.4878   XZ=              0.6811   YZ=              0.8140
 Traceless Quadrupole moment (field-independent basis, Debye-Ang):
   XX=             -2.6891   YY=              2.5921   ZZ=              0.0970
   XY=              3.4878   XZ=              0.6811   YZ=              0.8140
 Octapole moment (field-independent basis, Debye-Ang**2):
  XXX=              2.8136  YYY=              5.6877  ZZZ=             -0.0511  XYY=              4.7832
  XXY=              1.2671  XXZ=              0.8437  XZZ=              0.3630  YZZ=              1.3004
  YYZ=              0.9570  XYZ=              0.9575
 Hexadecapole moment (field-independent basis, Debye-Ang**3):
 XXXX=           -136.3071 YYYY=            -50.3504 ZZZZ=            -24.9581 XXXY=              6.3024
 XXXZ=              1.2011 YYYX=              6.7438 YYYZ=              1.3775 ZZZX=              0.3680
 ZZZY=              0.5758 XXYY=            -25.6550 XXZZ=            -26.1065 YYZZ=            -13.6907
 XXYZ=              1.3237 YYXZ=              1.1849 ZZXY=              0.5489
 N-N= 1.134072353559D+02 E-N=-2.287925986710D+03  KE= 8.212086676182D+02
                          Isotropic Fermi Contact Couplings
        Atom                 a.u.       MegaHertz       Gauss      10(-4) cm-1
     1  S(33)              0.10823      37.17263      13.26412      12.39945
     2  O(17)              0.02323     -14.07972      -5.02400      -4.69649
     3  O(17)              0.05139     -31.14940     -11.11488     -10.39032
     4  H(1)               0.00079       3.54770       1.26591       1.18339
 --------------------------------------------------------
       Center         ----  Spin Dipole Couplings  ----
                      3XX-RR        3YY-RR        3ZZ-RR
 --------------------------------------------------------
     1   Atom       -1.508790     -1.617790      3.126581
     2   Atom       -0.250341     -0.221752      0.472094
     3   Atom       -0.753793     -0.753451      1.507244
     4   Atom       -0.011055      0.022538     -0.011483
 --------------------------------------------------------
                        XY            XZ            YZ
 --------------------------------------------------------
     1   Atom       -0.006458     -0.064960      0.178227
     2   Atom        0.012786      0.006607     -0.115716
     3   Atom        0.003220      0.085387      0.036818
     4   Atom        0.005932      0.001324      0.004856
 --------------------------------------------------------


 ---------------------------------------------------------------------------------
              Anisotropic Spin Dipole Couplings in Principal Axis System
 ---------------------------------------------------------------------------------

       Atom             a.u.   MegaHertz   Gauss  10(-4) cm-1        Axes

              Baa    -1.6246   -66.608   -23.767   -22.218  0.0349  0.9987 -0.0370
     1 S(33)  Bbb    -1.5096   -61.891   -22.084   -20.645  0.9993 -0.0344  0.0153
              Bcc     3.1342   128.499    45.851    42.862 -0.0140  0.0375  0.9992
 
              Baa    -0.2600    18.813     6.713     6.275  0.8179 -0.5671 -0.0970
     2 O(17)  Bbb    -0.2309    16.709     5.962     5.574  0.5753  0.8079  0.1276
              Bcc     0.4909   -35.522   -12.675   -11.849  0.0060 -0.1602  0.9871
 
              Baa    -0.7579    54.840    19.568    18.293  0.9021 -0.4307 -0.0270
     3 O(17)  Bbb    -0.7532    54.499    19.447    18.179  0.4299  0.9024 -0.0309
              Bcc     1.5111  -109.340   -39.015   -36.472  0.0377  0.0163  0.9992
 
              Baa    -0.0126    -6.729    -2.401    -2.245 -0.6720  0.0111  0.7404
     4 H(1)   Bbb    -0.0116    -6.213    -2.217    -2.073  0.7210 -0.2185  0.6576
              Bcc     0.0243    12.943     4.618     4.317  0.1691  0.9758  0.1388
 

 ---------------------------------------------------------------------------------

 1\1\ CPUSERV-QCEXNOD13\SP\UwB97XD\6-311+G(3df)\H1O2S1(2)\ROOT\21-Aug-2
 025\0\\#sp wB97XD/6-311+G(3df)\\Optimizacion del hoso\\0,2\S,0,-0.1223
 43,-0.462008,0.015308\O,0,1.274632,0.237471,-0.04254\O,0,-1.184136,0.5
 40438,-0.019537\H,0,1.239021,1.158845,0.247681\\Version=EM64L-G09RevC.
 01\State=2-A\HF=-549.2192333\S2=0.755462\S2-1=0.\S2A=0.750021\RMSD=5.3
 87e-09\Dipole=0.6698705,0.1046587,0.2028478\Quadrupole=-1.8983883,1.82
 36729,0.0747155,2.6659922,0.5190338,0.6003327\PG=C01 [X(H1O2S1)]\\@


 CHARLIE BROWN -- WHICH DO YOU THINK LASTS LONGER IN LIFE, THE GOOD THINGS 
                  OR THE BAD THINGS?
 LINUS --         GOOD THINGS LAST EIGHT SECONDS ..
                  BAD THINGS LAST THREE WEEKS
 CHARLIE BROWN -- WHAT ABOUT IN BETWEEN?
 SNOOPY --        IN BETWEEN YOU SHOULD TAKE A NAP ...
 Job cpu time:  0 days  0 hours  6 minutes 16.9 seconds.
 File lengths (MBytes):  RWF=     21 Int=      0 D2E=      0 Chk=      2 Scr=      1
 Normal termination of Gaussian 09 at Thu Aug 21 00:39:59 2025.
