 Entering Gaussian System, Link 0=g09
 Initial command:
 /soft/g09.c01/g09/l1.exe /scr/macias/389606.qcexmaster_vib5_-0.05/Gau-9921.inp -scrdir=/scr/macias/389606.qcexmaster_vib5_-0.05/
 Entering Link 1 = /soft/g09.c01/g09/l1.exe PID=      9930.
  
 Copyright (c) 1988,1990,1992,1993,1995,1998,2003,2009,2011,
            Gaussian, Inc.  All Rights Reserved.
  
 This is part of the Gaussian(R) 09 program.  It is based on
 the Gaussian(R) 03 system (copyright 2003, Gaussian, Inc.),
 the Gaussian(R) 98 system (copyright 1998, Gaussian, Inc.),
 the Gaussian(R) 94 system (copyright 1995, Gaussian, Inc.),
 the Gaussian 92(TM) system (copyright 1992, Gaussian, Inc.),
 the Gaussian 90(TM) system (copyright 1990, Gaussian, Inc.),
 the Gaussian 88(TM) system (copyright 1988, Gaussian, Inc.),
 the Gaussian 86(TM) system (copyright 1986, Carnegie Mellon
 University), and the Gaussian 82(TM) system (copyright 1983,
 Carnegie Mellon University). Gaussian is a federally registered
 trademark of Gaussian, Inc.
  
 This software contains proprietary and confidential information,
 including trade secrets, belonging to Gaussian, Inc.
  
 This software is provided under written license and may be
 used, copied, transmitted, or stored only in accord with that
 written license.
  
 The following legend is applicable only to US Government
 contracts under FAR:
  
                    RESTRICTED RIGHTS LEGEND
  
 Use, reproduction and disclosure by the US Government is
 subject to restrictions as set forth in subparagraphs (a)
 and (c) of the Commercial Computer Software - Restricted
 Rights clause in FAR 52.227-19.
  
 Gaussian, Inc.
 340 Quinnipiac St., Bldg. 40, Wallingford CT 06492
  
  
 ---------------------------------------------------------------
 Warning -- This program may not be used in any manner that
 competes with the business of Gaussian, Inc. or will provide
 assistance to any competitor of Gaussian, Inc.  The licensee
 of this program is prohibited from giving any competitor of
 Gaussian, Inc. access to this program.  By using this program,
 the user acknowledges that Gaussian, Inc. is engaged in the
 business of creating and licensing software in the field of
 computational chemistry and represents and warrants to the
 licensee that it is not a competitor of Gaussian, Inc. and that
 it will not use this program in any manner prohibited above.
 ---------------------------------------------------------------
  

 Cite this work as:
 Gaussian 09, Revision C.01,
 M. J. Frisch, G. W. Trucks, H. B. Schlegel, G. E. Scuseria, 
 M. A. Robb, J. R. Cheeseman, G. Scalmani, V. Barone, B. Mennucci, 
 G. A. Petersson, H. Nakatsuji, M. Caricato, X. Li, H. P. Hratchian, 
 A. F. Izmaylov, J. Bloino, G. Zheng, J. L. Sonnenberg, M. Hada, 
 M. Ehara, K. Toyota, R. Fukuda, J. Hasegawa, M. Ishida, T. Nakajima, 
 Y. Honda, O. Kitao, H. Nakai, T. Vreven, J. A. Montgomery, Jr., 
 J. E. Peralta, F. Ogliaro, M. Bearpark, J. J. Heyd, E. Brothers, 
 K. N. Kudin, V. N. Staroverov, T. Keith, R. Kobayashi, J. Normand, 
 K. Raghavachari, A. Rendell, J. C. Burant, S. S. Iyengar, J. Tomasi, 
 M. Cossi, N. Rega, J. M. Millam, M. Klene, J. E. Knox, J. B. Cross, 
 V. Bakken, C. Adamo, J. Jaramillo, R. Gomperts, R. E. Stratmann, 
 O. Yazyev, A. J. Austin, R. Cammi, C. Pomelli, J. W. Ochterski, 
 R. L. Martin, K. Morokuma, V. G. Zakrzewski, G. A. Voth, 
 P. Salvador, J. J. Dannenberg, S. Dapprich, A. D. Daniels, 
 O. Farkas, J. B. Foresman, J. V. Ortiz, J. Cioslowski, 
 and D. J. Fox, Gaussian, Inc., Wallingford CT, 2010.
 
  
 -----  Compilado por  -----------------------------------------
  
  Servicio de Calculo | Servicio de Informatica U. de Valencia
     calculo@uv.es    |  E-46100 Burjassot (Valencia) SPAIN
  
 ---------------------------------------------------------------
  
 ******************************************
 Gaussian 09:  EM64L-G09RevC.01 23-Sep-2011
                21-Aug-2020 
 ******************************************
 %chk=opt_freq.chk
 %nproc=6
 Will use up to    6 processors via shared memory.
 %mem=20GB
 Default route:  CacheSize=131072
 -----------------------
 #sp wB97XD/6-311+G(3df)
 -----------------------
 1/4=131072,38=1/1;
 2/4=131072,12=2,17=6,18=5,40=1/2;
 3/4=131072,5=4,6=6,7=16,11=2,16=1,25=1,30=1,74=-58/1,2,3;
 4/4=131072/1;
 5/4=131072,5=2,38=5/2;
 6/4=131072,7=2,8=2,9=2,10=2,28=1/1;
 99/4=131072,5=1,9=1/99;
 ---------------------
 Optimizacion del hoso
 ---------------------
 Charge =  0 Multiplicity = 2
 Symbolic Z-Matrix:
 S                    -0.12884  -0.48551   0.01631 
 O                     1.30763   0.25847  -0.04404 
 O                    -1.20614   0.56644  -0.02054 
 H                     1.26202   1.17535   0.25418 
 
                          Input orientation:                          
 ---------------------------------------------------------------------
 Center     Atomic      Atomic             Coordinates (Angstroms)
 Number     Number       Type             X           Y           Z
 ---------------------------------------------------------------------
      1         16           0       -0.128843   -0.485508    0.016308
      2          8           0        1.307632    0.258471   -0.044040
      3          8           0       -1.206136    0.566438   -0.020537
      4          1           0        1.262021    1.175345    0.254181
 ---------------------------------------------------------------------
                    Distance matrix (angstroms):
                    1          2          3          4
     1  S    0.000000
     2  O    1.618829   0.000000
     3  O    1.506157   2.532672   0.000000
     4  H    2.179339   0.965233   2.556958   0.000000
 Stoichiometry    HO2S(2)
 Framework group  C1[X(HO2S)]
 Deg. of freedom     6
 Full point group                 C1      NOp   1
 Largest Abelian subgroup         C1      NOp   1
 Largest concise Abelian subgroup C1      NOp   1
                         Standard orientation:                         
 ---------------------------------------------------------------------
 Center     Atomic      Atomic             Coordinates (Angstroms)
 Number     Number       Type             X           Y           Z
 ---------------------------------------------------------------------
      1         16           0       -0.122070   -0.487570    0.015767
      2          8           0        1.303284    0.277481   -0.044790
      3          8           0       -1.214707    0.548515   -0.018594
      4          1           0        1.244506    1.193160    0.254798
 ---------------------------------------------------------------------
 Rotational constants (GHZ):     33.4532382      9.5453108      7.4485361
 Standard basis: 6-311+G(3df) (5D, 7F)
 There are   128 symmetry adapted basis functions of A   symmetry.
 Integral buffers will be    131072 words long.
 Raffenetti 2 integral format.
 Two-electron integral symmetry is turned on.
   128 basis functions,   193 primitive gaussians,   146 cartesian basis functions
    17 alpha electrons       16 beta electrons
       nuclear repulsion energy       110.1124249044 Hartrees.
 NAtoms=    4 NActive=    4 NUniq=    4 SFac= 1.00D+00 NAtFMM=   60 NAOKFM=F Big=F
 Nuclear repulsion after empirical dispersion term =      110.1121606009 Hartrees.
 One-electron integrals computed using PRISM.
 NBasis=   128 RedAO= T  NBF=   128
 NBsUse=   128 1.00D-06 NBFU=   128
 Harris functional with IExCor= 4639 diagonalized for initial guess.
 ExpMin= 4.05D-02 ExpMax= 9.34D+04 ExpMxC= 3.17D+03 IAcc=2 IRadAn=         4 AccDes= 0.00D+00
 HarFok:  IExCor= 4639 AccDes= 0.00D+00 IRadAn=         4 IDoV= 1
 ScaDFX=  1.000000  1.000000  1.000000  1.000000
 FoFCou: FMM=F IPFlag=           0 FMFlag=      100000 FMFlg1=           0
         NFxFlg=           0 DoJE=T BraDBF=F KetDBF=T FulRan=T
         Omega=  0.000000  0.000000  1.000000  0.000000  0.000000 ICntrl=     500 IOpCl=  0
         NMat0=    1 NMatS0=    1 NMatT0=    0 NMatD0=    1 NMtDS0=    0 NMtDT0=    0
         I1Cent=           4 NGrid=           0.
 Petite list used in FoFCou.
 Initial guess orbital symmetries:
 Alpha Orbitals:
       Occupied  (A) (A) (A) (A) (A) (A) (A) (A) (A) (A) (A) (A)
                 (A) (A) (A) (A) (A)
       Virtual   (A) (A) (A) (A) (A) (A) (A) (A) (A) (A) (A) (A)
                 (A) (A) (A) (A) (A) (A) (A) (A) (A) (A) (A) (A)
                 (A) (A) (A) (A) (A) (A) (A) (A) (A) (A) (A) (A)
                 (A) (A) (A) (A) (A) (A) (A) (A) (A) (A) (A) (A)
                 (A) (A) (A) (A) (A) (A) (A) (A) (A) (A) (A) (A)
                 (A) (A) (A) (A) (A) (A) (A) (A) (A) (A) (A) (A)
                 (A) (A) (A) (A) (A) (A) (A) (A) (A) (A) (A) (A)
                 (A) (A) (A) (A) (A) (A) (A) (A) (A) (A) (A) (A)
                 (A) (A) (A) (A) (A) (A) (A) (A) (A) (A) (A) (A)
                 (A) (A) (A)
 Beta  Orbitals:
       Occupied  (A) (A) (A) (A) (A) (A) (A) (A) (A) (A) (A) (A)
                 (A) (A) (A) (A)
       Virtual   (A) (A) (A) (A) (A) (A) (A) (A) (A) (A) (A) (A)
                 (A) (A) (A) (A) (A) (A) (A) (A) (A) (A) (A) (A)
                 (A) (A) (A) (A) (A) (A) (A) (A) (A) (A) (A) (A)
                 (A) (A) (A) (A) (A) (A) (A) (A) (A) (A) (A) (A)
                 (A) (A) (A) (A) (A) (A) (A) (A) (A) (A) (A) (A)
                 (A) (A) (A) (A) (A) (A) (A) (A) (A) (A) (A) (A)
                 (A) (A) (A) (A) (A) (A) (A) (A) (A) (A) (A) (A)
                 (A) (A) (A) (A) (A) (A) (A) (A) (A) (A) (A) (A)
                 (A) (A) (A) (A) (A) (A) (A) (A) (A) (A) (A) (A)
                 (A) (A) (A) (A)
 The electronic state of the initial guess is 2-A.
 Initial guess <Sx>= 0.0000 <Sy>= 0.0000 <Sz>= 0.5000 <S**2>= 0.7500 S= 0.5000
 Requested convergence on RMS density matrix=1.00D-08 within 128 cycles.
 Requested convergence on MAX density matrix=1.00D-06.
 Requested convergence on             energy=1.00D-06.
 No special actions if energy rises.
 FoFJK:  IHMeth= 1 ICntrl=     0 DoSepK=T KAlg= 1 I1Cent= 0 FoldK=F
 FoFJK:  IHMeth= 1 ICntrl=     0 DoSepK=T KAlg= 1 I1Cent= 0 FoldK=F
 FoFJK:  IHMeth= 1 ICntrl=     0 DoSepK=T KAlg= 1 I1Cent= 0 FoldK=F
 FoFJK:  IHMeth= 1 ICntrl=     0 DoSepK=T KAlg= 1 I1Cent= 0 FoldK=F
 FoFJK:  IHMeth= 1 ICntrl=     0 DoSepK=T KAlg= 1 I1Cent= 0 FoldK=F
 FoFJK:  IHMeth= 1 ICntrl=     0 DoSepK=T KAlg= 1 I1Cent= 0 FoldK=F
 FoFJK:  IHMeth= 1 ICntrl=     0 DoSepK=T KAlg= 1 I1Cent= 0 FoldK=F
 FoFJK:  IHMeth= 1 ICntrl=     0 DoSepK=T KAlg= 1 I1Cent= 0 FoldK=F
 FoFJK:  IHMeth= 1 ICntrl=     0 DoSepK=T KAlg= 1 I1Cent= 0 FoldK=F
 FoFJK:  IHMeth= 1 ICntrl=     0 DoSepK=T KAlg= 1 I1Cent= 0 FoldK=F
 FoFJK:  IHMeth= 1 ICntrl=     0 DoSepK=T KAlg= 1 I1Cent= 0 FoldK=F
 FoFJK:  IHMeth= 1 ICntrl=     0 DoSepK=T KAlg= 1 I1Cent= 0 FoldK=F
 FoFJK:  IHMeth= 1 ICntrl=     0 DoSepK=T KAlg= 1 I1Cent= 0 FoldK=F
 FoFJK:  IHMeth= 1 ICntrl=     0 DoSepK=T KAlg= 1 I1Cent= 0 FoldK=F
 FoFJK:  IHMeth= 1 ICntrl=     0 DoSepK=T KAlg= 1 I1Cent= 0 FoldK=F
 SCF Done:  E(UwB97XD) =  -549.219109160     A.U. after   15 cycles
             Convg  =    0.8288D-08             -V/T =  2.0019
 <Sx>= 0.0000 <Sy>= 0.0000 <Sz>= 0.5000 <S**2>= 0.7558 S= 0.5029
 <L.S>= 0.000000000000E+00
 Annihilation of the first spin contaminant:
 S**2 before annihilation     0.7558,   after     0.7500

 **********************************************************************

            Population analysis using the SCF density.

 **********************************************************************

 Orbital symmetries:
 Alpha Orbitals:
       Occupied  (A) (A) (A) (A) (A) (A) (A) (A) (A) (A) (A) (A)
                 (A) (A) (A) (A) (A)
       Virtual   (A) (A) (A) (A) (A) (A) (A) (A) (A) (A) (A) (A)
                 (A) (A) (A) (A) (A) (A) (A) (A) (A) (A) (A) (A)
                 (A) (A) (A) (A) (A) (A) (A) (A) (A) (A) (A) (A)
                 (A) (A) (A) (A) (A) (A) (A) (A) (A) (A) (A) (A)
                 (A) (A) (A) (A) (A) (A) (A) (A) (A) (A) (A) (A)
                 (A) (A) (A) (A) (A) (A) (A) (A) (A) (A) (A) (A)
                 (A) (A) (A) (A) (A) (A) (A) (A) (A) (A) (A) (A)
                 (A) (A) (A) (A) (A) (A) (A) (A) (A) (A) (A) (A)
                 (A) (A) (A) (A) (A) (A) (A) (A) (A) (A) (A) (A)
                 (A) (A) (A)
 Beta  Orbitals:
       Occupied  (A) (A) (A) (A) (A) (A) (A) (A) (A) (A) (A) (A)
                 (A) (A) (A) (A)
       Virtual   (A) (A) (A) (A) (A) (A) (A) (A) (A) (A) (A) (A)
                 (A) (A) (A) (A) (A) (A) (A) (A) (A) (A) (A) (A)
                 (A) (A) (A) (A) (A) (A) (A) (A) (A) (A) (A) (A)
                 (A) (A) (A) (A) (A) (A) (A) (A) (A) (A) (A) (A)
                 (A) (A) (A) (A) (A) (A) (A) (A) (A) (A) (A) (A)
                 (A) (A) (A) (A) (A) (A) (A) (A) (A) (A) (A) (A)
                 (A) (A) (A) (A) (A) (A) (A) (A) (A) (A) (A) (A)
                 (A) (A) (A) (A) (A) (A) (A) (A) (A) (A) (A) (A)
                 (A) (A) (A) (A) (A) (A) (A) (A) (A) (A) (A) (A)
                 (A) (A) (A) (A)
 The electronic state is 2-A.
 Alpha  occ. eigenvalues --  -89.15314 -19.32057 -19.28384  -8.17971  -6.12918
 Alpha  occ. eigenvalues --   -6.12651  -6.12320  -1.21832  -1.13651  -0.80845
 Alpha  occ. eigenvalues --   -0.63555  -0.56854  -0.56051  -0.49902  -0.46889
 Alpha  occ. eigenvalues --   -0.42080  -0.31475
 Alpha virt. eigenvalues --    0.04623   0.06650   0.07356   0.09393   0.11684
 Alpha virt. eigenvalues --    0.12937   0.18774   0.22531   0.24484   0.24933
 Alpha virt. eigenvalues --    0.26390   0.28230   0.30024   0.32549   0.32967
 Alpha virt. eigenvalues --    0.35546   0.36359   0.37950   0.38900   0.39994
 Alpha virt. eigenvalues --    0.40870   0.49836   0.56456   0.67013   0.78076
 Alpha virt. eigenvalues --    0.81079   0.86982   0.88036   0.93824   0.96464
 Alpha virt. eigenvalues --    0.96719   0.97615   1.00070   1.01856   1.05352
 Alpha virt. eigenvalues --    1.09077   1.10008   1.12876   1.13889   1.15510
 Alpha virt. eigenvalues --    1.22073   1.27312   1.31370   1.38328   1.39357
 Alpha virt. eigenvalues --    1.43085   1.66893   1.68074   1.73020   1.80586
 Alpha virt. eigenvalues --    1.92388   2.02103   2.07965   2.08144   2.13968
 Alpha virt. eigenvalues --    2.21518   2.30712   2.32068   2.43049   3.37137
 Alpha virt. eigenvalues --    3.41954   3.45385   3.47329   3.49873   3.54586
 Alpha virt. eigenvalues --    3.55906   3.63604   3.67813   3.71203   4.52981
 Alpha virt. eigenvalues --    4.54703   4.59103   4.71137   4.87689   4.98426
 Alpha virt. eigenvalues --    5.03242   5.03961   5.04273   5.06792   5.08357
 Alpha virt. eigenvalues --    5.10331   5.11394   5.15849   5.22414   5.22962
 Alpha virt. eigenvalues --    5.41859   5.46901   5.53489   5.56909   5.61147
 Alpha virt. eigenvalues --    5.69508   5.79826   5.97238   6.58672   8.70307
 Alpha virt. eigenvalues --   14.32070  14.35359  14.37215  14.38822  14.40952
 Alpha virt. eigenvalues --   14.44458  14.47135  14.48980  14.61372  14.69382
 Alpha virt. eigenvalues --   17.35505  17.60441  17.80670  50.02324  50.09347
 Alpha virt. eigenvalues --  189.73937
  Beta  occ. eigenvalues --  -89.14933 -19.31817 -19.27453  -8.17631  -6.12694
  Beta  occ. eigenvalues --   -6.12116  -6.11425  -1.20854  -1.11890  -0.78626
  Beta  occ. eigenvalues --   -0.62184  -0.56065  -0.52829  -0.47901  -0.42647
  Beta  occ. eigenvalues --   -0.40877
  Beta virt. eigenvalues --   -0.04432   0.05124   0.06984   0.07829   0.09929
  Beta virt. eigenvalues --    0.12586   0.13621   0.19041   0.22775   0.24800
  Beta virt. eigenvalues --    0.25122   0.26922   0.28601   0.30348   0.32681
  Beta virt. eigenvalues --    0.34088   0.35781   0.36915   0.38668   0.40219
  Beta virt. eigenvalues --    0.40642   0.41330   0.50482   0.56658   0.67494
  Beta virt. eigenvalues --    0.78601   0.81404   0.87490   0.88799   0.94420
  Beta virt. eigenvalues --    0.96878   0.97531   0.98712   1.01023   1.02695
  Beta virt. eigenvalues --    1.06107   1.09902   1.12021   1.13185   1.14433
  Beta virt. eigenvalues --    1.16251   1.23355   1.27809   1.32826   1.38928
  Beta virt. eigenvalues --    1.39943   1.43428   1.69803   1.70100   1.74610
  Beta virt. eigenvalues --    1.82077   1.93192   2.03490   2.08749   2.10305
  Beta virt. eigenvalues --    2.14362   2.21969   2.31234   2.32952   2.43496
  Beta virt. eigenvalues --    3.37996   3.43382   3.47450   3.48802   3.51442
  Beta virt. eigenvalues --    3.56229   3.57497   3.64371   3.68911   3.71682
  Beta virt. eigenvalues --    4.53516   4.54840   4.59940   4.71644   4.88246
  Beta virt. eigenvalues --    4.98974   5.04020   5.04809   5.04889   5.07944
  Beta virt. eigenvalues --    5.12459   5.12664   5.13273   5.16756   5.23686
  Beta virt. eigenvalues --    5.23987   5.42444   5.47393   5.54287   5.57637
  Beta virt. eigenvalues --    5.62385   5.69897   5.81545   5.97742   6.59097
  Beta virt. eigenvalues --    8.70670  14.33317  14.37555  14.40052  14.41315
  Beta virt. eigenvalues --   14.43557  14.47586  14.48457  14.50260  14.61942
  Beta virt. eigenvalues --   14.71539  17.36878  17.60722  17.80981  50.02560
  Beta virt. eigenvalues --   50.10177 189.74239
          Condensed to atoms (all electrons):
              1          2          3          4
     1  S   15.323304  -0.010854   0.167812   0.009303
     2  O   -0.010854   8.406105   0.004001   0.209210
     3  O    0.167812   0.004001   8.227305  -0.000299
     4  H    0.009303   0.209210  -0.000299   0.284940
 Mulliken atomic charges:
              1
     1  S    0.510435
     2  O   -0.608461
     3  O   -0.398819
     4  H    0.496845
 Sum of Mulliken atomic charges =   0.00000
 Mulliken charges with hydrogens summed into heavy atoms:
              1
     1  S    0.510435
     2  O   -0.111616
     3  O   -0.398819
 Sum of Mulliken charges with hydrogens summed into heavy atoms =   0.00000
          Atomic-Atomic Spin Densities.
              1          2          3          4
     1  S    0.899935  -0.100247  -0.182531  -0.000450
     2  O   -0.100247   0.145841   0.017876  -0.003979
     3  O   -0.182531   0.017876   0.488276  -0.000530
     4  H   -0.000450  -0.003979  -0.000530   0.005668
 Mulliken atomic spin densities:
              1
     1  S    0.616707
     2  O    0.059492
     3  O    0.323091
     4  H    0.000709
 Sum of Mulliken atomic spin densities =   1.00000
 Electronic spatial extent (au):  <R**2>=            179.8261
 Charge=              0.0000 electrons
 Dipole moment (field-independent basis, Debye):
    X=              1.5256    Y=              0.0279    Z=              0.5378  Tot=              1.6179
 Quadrupole moment (field-independent basis, Debye-Ang):
   XX=            -26.6851   YY=            -20.9265   ZZ=            -23.6625
   XY=              3.4967   XZ=              0.7159   YZ=              0.8428
 Traceless Quadrupole moment (field-independent basis, Debye-Ang):
   XX=             -2.9270   YY=              2.8315   ZZ=              0.0955
   XY=              3.4967   XZ=              0.7159   YZ=              0.8428
 Octapole moment (field-independent basis, Debye-Ang**2):
  XXX=              2.4665  YYY=              5.2902  ZZZ=             -0.0021  XYY=              4.8232
  XXY=              1.3185  XXZ=              0.8839  XZZ=              0.3108  YZZ=              1.1587
  YYZ=              1.0129  XYZ=              1.0384
 Hexadecapole moment (field-independent basis, Debye-Ang**3):
 XXXX=           -142.9171 YYYY=            -52.5764 ZZZZ=            -25.0108 XXXY=              6.4469
 XXXZ=              1.2987 YYYX=              6.8816 YYYZ=              1.4606 ZZZX=              0.3894
 ZZZY=              0.5798 XXYY=            -26.6781 XXZZ=            -27.1797 YYZZ=            -14.0581
 XXYZ=              1.4377 YYXZ=              1.2803 ZZXY=              0.5213
 N-N= 1.101121606009D+02 E-N=-2.277821699382D+03  KE= 8.208412538283D+02
                          Isotropic Fermi Contact Couplings
        Atom                 a.u.       MegaHertz       Gauss      10(-4) cm-1
     1  S(33)              0.10230      35.13655      12.53759      11.72029
     2  O(17)              0.02088     -12.65755      -4.51653      -4.22210
     3  O(17)              0.05325     -32.27885     -11.51790     -10.76707
     4  H(1)               0.00052       2.32650       0.83015       0.77604
 --------------------------------------------------------
       Center         ----  Spin Dipole Couplings  ----
                      3XX-RR        3YY-RR        3ZZ-RR
 --------------------------------------------------------
     1   Atom       -1.493375     -1.599599      3.092974
     2   Atom       -0.238464     -0.200334      0.438798
     3   Atom       -0.807638     -0.809663      1.617302
     4   Atom       -0.009433      0.020205     -0.010772
 --------------------------------------------------------
                        XY            XZ            YZ
 --------------------------------------------------------
     1   Atom        0.002391     -0.067876      0.151922
     2   Atom        0.007608      0.013796     -0.110693
     3   Atom        0.007843      0.084644      0.031247
     4   Atom        0.005615      0.001388      0.004741
 --------------------------------------------------------


 ---------------------------------------------------------------------------------
              Anisotropic Spin Dipole Couplings in Principal Axis System
 ---------------------------------------------------------------------------------

       Atom             a.u.   MegaHertz   Gauss  10(-4) cm-1        Axes

              Baa    -1.6047   -65.791   -23.476   -21.946 -0.0415  0.9986 -0.0329
     1 S(33)  Bbb    -1.4942   -61.260   -21.859   -20.434  0.9990  0.0420  0.0134
              Bcc     3.0989   127.052    45.335    42.380 -0.0148  0.0323  0.9994
 
              Baa    -0.2427    17.563     6.267     5.858  0.9244 -0.3731 -0.0793
     2 O(17)  Bbb    -0.2149    15.552     5.549     5.188  0.3810  0.9129  0.1465
              Bcc     0.4576   -33.115   -11.816   -11.046  0.0177 -0.1657  0.9860
 
              Baa    -0.8171    59.124    21.097    19.722  0.7204 -0.6934 -0.0161
     3 O(17)  Bbb    -0.8036    58.146    20.748    19.395  0.6927  0.7205 -0.0335
              Bcc     1.6207  -117.270   -41.845   -39.117  0.0349  0.0130  0.9993
 
              Baa    -0.0117    -6.250    -2.230    -2.085 -0.3929 -0.0671  0.9171
     4 H(1)   Bbb    -0.0103    -5.473    -1.953    -1.826  0.9017 -0.2238  0.3699
              Bcc     0.0220    11.723     4.183     3.910  0.1804  0.9723  0.1484
 

 ---------------------------------------------------------------------------------

 1\1\ CPUSERV-QCEXNOD16\SP\UwB97XD\6-311+G(3df)\H1O2S1(2)\ROOT\21-Aug-2
 020\0\\#sp wB97XD/6-311+G(3df)\\Optimizacion del hoso\\0,2\S,0,-0.1288
 43,-0.485508,0.016308\O,0,1.307632,0.258471,-0.04404\O,0,-1.206136,0.5
 66438,-0.020537\H,0,1.262021,1.175345,0.254181\\Version=EM64L-G09RevC.
 01\State=2-A\HF=-549.2191092\S2=0.755776\S2-1=0.\S2A=0.750023\RMSD=8.2
 88e-09\Dipole=0.6001374,0.0024898,0.2121166\Quadrupole=-2.0999657,2.02
 97716,0.0701941,2.6616095,0.5356288,0.6183093\PG=C01 [X(H1O2S1)]\\@


 MUD THROWN IS GROUND LOST -- FROM A TEA BAG
 Job cpu time:  0 days  0 hours  4 minutes 38.0 seconds.
 File lengths (MBytes):  RWF=     21 Int=      0 D2E=      0 Chk=      2 Scr=      1
 Normal termination of Gaussian 09 at Fri Aug 21 00:31:55 2020.
