 Entering Gaussian System, Link 0=g09
 Initial command:
 /soft/g09.c01/g09/l1.exe /scr/macias/389559.qcexmaster_vib6_-0.15/Gau-31090.inp -scrdir=/scr/macias/389559.qcexmaster_vib6_-0.15/
 Entering Link 1 = /soft/g09.c01/g09/l1.exe PID=     31093.
  
 Copyright (c) 1988,1990,1992,1993,1995,1998,2003,2009,2011,
            Gaussian, Inc.  All Rights Reserved.
  
 This is part of the Gaussian(R) 09 program.  It is based on
 the Gaussian(R) 03 system (copyright 2003, Gaussian, Inc.),
 the Gaussian(R) 98 system (copyright 1998, Gaussian, Inc.),
 the Gaussian(R) 94 system (copyright 1995, Gaussian, Inc.),
 the Gaussian 92(TM) system (copyright 1992, Gaussian, Inc.),
 the Gaussian 90(TM) system (copyright 1990, Gaussian, Inc.),
 the Gaussian 88(TM) system (copyright 1988, Gaussian, Inc.),
 the Gaussian 86(TM) system (copyright 1986, Carnegie Mellon
 University), and the Gaussian 82(TM) system (copyright 1983,
 Carnegie Mellon University). Gaussian is a federally registered
 trademark of Gaussian, Inc.
  
 This software contains proprietary and confidential information,
 including trade secrets, belonging to Gaussian, Inc.
  
 This software is provided under written license and may be
 used, copied, transmitted, or stored only in accord with that
 written license.
  
 The following legend is applicable only to US Government
 contracts under FAR:
  
                    RESTRICTED RIGHTS LEGEND
  
 Use, reproduction and disclosure by the US Government is
 subject to restrictions as set forth in subparagraphs (a)
 and (c) of the Commercial Computer Software - Restricted
 Rights clause in FAR 52.227-19.
  
 Gaussian, Inc.
 340 Quinnipiac St., Bldg. 40, Wallingford CT 06492
  
  
 ---------------------------------------------------------------
 Warning -- This program may not be used in any manner that
 competes with the business of Gaussian, Inc. or will provide
 assistance to any competitor of Gaussian, Inc.  The licensee
 of this program is prohibited from giving any competitor of
 Gaussian, Inc. access to this program.  By using this program,
 the user acknowledges that Gaussian, Inc. is engaged in the
 business of creating and licensing software in the field of
 computational chemistry and represents and warrants to the
 licensee that it is not a competitor of Gaussian, Inc. and that
 it will not use this program in any manner prohibited above.
 ---------------------------------------------------------------
  

 Cite this work as:
 Gaussian 09, Revision C.01,
 M. J. Frisch, G. W. Trucks, H. B. Schlegel, G. E. Scuseria, 
 M. A. Robb, J. R. Cheeseman, G. Scalmani, V. Barone, B. Mennucci, 
 G. A. Petersson, H. Nakatsuji, M. Caricato, X. Li, H. P. Hratchian, 
 A. F. Izmaylov, J. Bloino, G. Zheng, J. L. Sonnenberg, M. Hada, 
 M. Ehara, K. Toyota, R. Fukuda, J. Hasegawa, M. Ishida, T. Nakajima, 
 Y. Honda, O. Kitao, H. Nakai, T. Vreven, J. A. Montgomery, Jr., 
 J. E. Peralta, F. Ogliaro, M. Bearpark, J. J. Heyd, E. Brothers, 
 K. N. Kudin, V. N. Staroverov, T. Keith, R. Kobayashi, J. Normand, 
 K. Raghavachari, A. Rendell, J. C. Burant, S. S. Iyengar, J. Tomasi, 
 M. Cossi, N. Rega, J. M. Millam, M. Klene, J. E. Knox, J. B. Cross, 
 V. Bakken, C. Adamo, J. Jaramillo, R. Gomperts, R. E. Stratmann, 
 O. Yazyev, A. J. Austin, R. Cammi, C. Pomelli, J. W. Ochterski, 
 R. L. Martin, K. Morokuma, V. G. Zakrzewski, G. A. Voth, 
 P. Salvador, J. J. Dannenberg, S. Dapprich, A. D. Daniels, 
 O. Farkas, J. B. Foresman, J. V. Ortiz, J. Cioslowski, 
 and D. J. Fox, Gaussian, Inc., Wallingford CT, 2010.
 
  
 -----  Compilado por  -----------------------------------------
  
  Servicio de Calculo | Servicio de Informatica U. de Valencia
     calculo@uv.es    |  E-46100 Burjassot (Valencia) SPAIN
  
 ---------------------------------------------------------------
  
 ******************************************
 Gaussian 09:  EM64L-G09RevC.01 23-Sep-2011
                21-Aug-2025 
 ******************************************
 %chk=opt_freq.chk
 %nproc=6
 Will use up to    6 processors via shared memory.
 %mem=20GB
 Default route:  CacheSize=131072
 -----------------------
 #sp wB97XD/6-311+G(3df)
 -----------------------
 1/4=131072,38=1/1;
 2/4=131072,12=2,17=6,18=5,40=1/2;
 3/4=131072,5=4,6=6,7=16,11=2,16=1,25=1,30=1,74=-58/1,2,3;
 4/4=131072/1;
 5/4=131072,5=2,38=5/2;
 6/4=131072,7=2,8=2,9=2,10=2,28=1/1;
 99/4=131072,5=1,9=1/99;
 ---------------------
 Optimizacion del hoso
 ---------------------
 Charge =  0 Multiplicity = 2
 Symbolic Z-Matrix:
 S                    -0.13884  -0.47401   0.01631 
 O                     1.31013   0.24747  -0.04804 
 O                    -1.18564   0.54544  -0.02004 
 H                     1.21502   1.31135   0.30618 
 
                          Input orientation:                          
 ---------------------------------------------------------------------
 Center     Atomic      Atomic             Coordinates (Angstroms)
 Number     Number       Type             X           Y           Z
 ---------------------------------------------------------------------
      1         16           0       -0.138843   -0.474008    0.016308
      2          8           0        1.310132    0.247471   -0.048040
      3          8           0       -1.185636    0.545438   -0.020037
      4          1           0        1.215021    1.311345    0.306181
 ---------------------------------------------------------------------
                    Distance matrix (angstroms):
                    1          2          3          4
     1  S    0.000000
     2  O    1.619939   0.000000
     3  O    1.461632   2.513648   0.000000
     4  H    2.259305   1.125321   2.540903   0.000000
 Stoichiometry    HO2S(2)
 Framework group  C1[X(HO2S)]
 Deg. of freedom     6
 Full point group                 C1      NOp   1
 Largest Abelian subgroup         C1      NOp   1
 Largest concise Abelian subgroup C1      NOp   1
                         Standard orientation:                         
 ---------------------------------------------------------------------
 Center     Atomic      Atomic             Coordinates (Angstroms)
 Number     Number       Type             X           Y           Z
 ---------------------------------------------------------------------
      1         16           0       -0.140219   -0.475425    0.021356
      2          8           0        1.311280    0.240028   -0.052673
      3          8           0       -1.183378    0.547280   -0.026169
      4          1           0        1.220288    1.308342    0.289046
 ---------------------------------------------------------------------
 Rotational constants (GHZ):     34.3327904      9.6779596      7.5814463
 Standard basis: 6-311+G(3df) (5D, 7F)
 There are   128 symmetry adapted basis functions of A   symmetry.
 Integral buffers will be    131072 words long.
 Raffenetti 2 integral format.
 Two-electron integral symmetry is turned on.
   128 basis functions,   193 primitive gaussians,   146 cartesian basis functions
    17 alpha electrons       16 beta electrons
       nuclear repulsion energy       110.8039446425 Hartrees.
 NAtoms=    4 NActive=    4 NUniq=    4 SFac= 1.00D+00 NAtFMM=   60 NAOKFM=F Big=F
 Nuclear repulsion after empirical dispersion term =      110.8036748468 Hartrees.
 One-electron integrals computed using PRISM.
 NBasis=   128 RedAO= T  NBF=   128
 NBsUse=   128 1.00D-06 NBFU=   128
 Harris functional with IExCor= 4639 diagonalized for initial guess.
 ExpMin= 4.05D-02 ExpMax= 9.34D+04 ExpMxC= 3.17D+03 IAcc=2 IRadAn=         4 AccDes= 0.00D+00
 HarFok:  IExCor= 4639 AccDes= 0.00D+00 IRadAn=         4 IDoV= 1
 ScaDFX=  1.000000  1.000000  1.000000  1.000000
 FoFCou: FMM=F IPFlag=           0 FMFlag=      100000 FMFlg1=           0
         NFxFlg=           0 DoJE=T BraDBF=F KetDBF=T FulRan=T
         Omega=  0.000000  0.000000  1.000000  0.000000  0.000000 ICntrl=     500 IOpCl=  0
         NMat0=    1 NMatS0=    1 NMatT0=    0 NMatD0=    1 NMtDS0=    0 NMtDT0=    0
         I1Cent=           4 NGrid=           0.
 Petite list used in FoFCou.
 Initial guess orbital symmetries:
 Alpha Orbitals:
       Occupied  (A) (A) (A) (A) (A) (A) (A) (A) (A) (A) (A) (A)
                 (A) (A) (A) (A) (A)
       Virtual   (A) (A) (A) (A) (A) (A) (A) (A) (A) (A) (A) (A)
                 (A) (A) (A) (A) (A) (A) (A) (A) (A) (A) (A) (A)
                 (A) (A) (A) (A) (A) (A) (A) (A) (A) (A) (A) (A)
                 (A) (A) (A) (A) (A) (A) (A) (A) (A) (A) (A) (A)
                 (A) (A) (A) (A) (A) (A) (A) (A) (A) (A) (A) (A)
                 (A) (A) (A) (A) (A) (A) (A) (A) (A) (A) (A) (A)
                 (A) (A) (A) (A) (A) (A) (A) (A) (A) (A) (A) (A)
                 (A) (A) (A) (A) (A) (A) (A) (A) (A) (A) (A) (A)
                 (A) (A) (A) (A) (A) (A) (A) (A) (A) (A) (A) (A)
                 (A) (A) (A)
 Beta  Orbitals:
       Occupied  (A) (A) (A) (A) (A) (A) (A) (A) (A) (A) (A) (A)
                 (A) (A) (A) (A)
       Virtual   (A) (A) (A) (A) (A) (A) (A) (A) (A) (A) (A) (A)
                 (A) (A) (A) (A) (A) (A) (A) (A) (A) (A) (A) (A)
                 (A) (A) (A) (A) (A) (A) (A) (A) (A) (A) (A) (A)
                 (A) (A) (A) (A) (A) (A) (A) (A) (A) (A) (A) (A)
                 (A) (A) (A) (A) (A) (A) (A) (A) (A) (A) (A) (A)
                 (A) (A) (A) (A) (A) (A) (A) (A) (A) (A) (A) (A)
                 (A) (A) (A) (A) (A) (A) (A) (A) (A) (A) (A) (A)
                 (A) (A) (A) (A) (A) (A) (A) (A) (A) (A) (A) (A)
                 (A) (A) (A) (A) (A) (A) (A) (A) (A) (A) (A) (A)
                 (A) (A) (A) (A)
 The electronic state of the initial guess is 2-A.
 Initial guess <Sx>= 0.0000 <Sy>= 0.0000 <Sz>= 0.5000 <S**2>= 0.7500 S= 0.5000
 Requested convergence on RMS density matrix=1.00D-08 within 128 cycles.
 Requested convergence on MAX density matrix=1.00D-06.
 Requested convergence on             energy=1.00D-06.
 No special actions if energy rises.
 FoFJK:  IHMeth= 1 ICntrl=     0 DoSepK=T KAlg= 1 I1Cent= 0 FoldK=F
 FoFJK:  IHMeth= 1 ICntrl=     0 DoSepK=T KAlg= 1 I1Cent= 0 FoldK=F
 FoFJK:  IHMeth= 1 ICntrl=     0 DoSepK=T KAlg= 1 I1Cent= 0 FoldK=F
 FoFJK:  IHMeth= 1 ICntrl=     0 DoSepK=T KAlg= 1 I1Cent= 0 FoldK=F
 FoFJK:  IHMeth= 1 ICntrl=     0 DoSepK=T KAlg= 1 I1Cent= 0 FoldK=F
 FoFJK:  IHMeth= 1 ICntrl=     0 DoSepK=T KAlg= 1 I1Cent= 0 FoldK=F
 FoFJK:  IHMeth= 1 ICntrl=     0 DoSepK=T KAlg= 1 I1Cent= 0 FoldK=F
 FoFJK:  IHMeth= 1 ICntrl=     0 DoSepK=T KAlg= 1 I1Cent= 0 FoldK=F
 FoFJK:  IHMeth= 1 ICntrl=     0 DoSepK=T KAlg= 1 I1Cent= 0 FoldK=F
 FoFJK:  IHMeth= 1 ICntrl=     0 DoSepK=T KAlg= 1 I1Cent= 0 FoldK=F
 FoFJK:  IHMeth= 1 ICntrl=     0 DoSepK=T KAlg= 1 I1Cent= 0 FoldK=F
 FoFJK:  IHMeth= 1 ICntrl=     0 DoSepK=T KAlg= 1 I1Cent= 0 FoldK=F
 FoFJK:  IHMeth= 1 ICntrl=     0 DoSepK=T KAlg= 1 I1Cent= 0 FoldK=F
 FoFJK:  IHMeth= 1 ICntrl=     0 DoSepK=T KAlg= 1 I1Cent= 0 FoldK=F
 FoFJK:  IHMeth= 1 ICntrl=     0 DoSepK=T KAlg= 1 I1Cent= 0 FoldK=F
 SCF Done:  E(UwB97XD) =  -549.204650159     A.U. after   15 cycles
             Convg  =    0.9589D-08             -V/T =  2.0020
 <Sx>= 0.0000 <Sy>= 0.0000 <Sz>= 0.5000 <S**2>= 0.7554 S= 0.5027
 <L.S>= 0.000000000000E+00
 Annihilation of the first spin contaminant:
 S**2 before annihilation     0.7554,   after     0.7500

 **********************************************************************

            Population analysis using the SCF density.

 **********************************************************************

 Orbital symmetries:
 Alpha Orbitals:
       Occupied  (A) (A) (A) (A) (A) (A) (A) (A) (A) (A) (A) (A)
                 (A) (A) (A) (A) (A)
       Virtual   (A) (A) (A) (A) (A) (A) (A) (A) (A) (A) (A) (A)
                 (A) (A) (A) (A) (A) (A) (A) (A) (A) (A) (A) (A)
                 (A) (A) (A) (A) (A) (A) (A) (A) (A) (A) (A) (A)
                 (A) (A) (A) (A) (A) (A) (A) (A) (A) (A) (A) (A)
                 (A) (A) (A) (A) (A) (A) (A) (A) (A) (A) (A) (A)
                 (A) (A) (A) (A) (A) (A) (A) (A) (A) (A) (A) (A)
                 (A) (A) (A) (A) (A) (A) (A) (A) (A) (A) (A) (A)
                 (A) (A) (A) (A) (A) (A) (A) (A) (A) (A) (A) (A)
                 (A) (A) (A) (A) (A) (A) (A) (A) (A) (A) (A) (A)
                 (A) (A) (A)
 Beta  Orbitals:
       Occupied  (A) (A) (A) (A) (A) (A) (A) (A) (A) (A) (A) (A)
                 (A) (A) (A) (A)
       Virtual   (A) (A) (A) (A) (A) (A) (A) (A) (A) (A) (A) (A)
                 (A) (A) (A) (A) (A) (A) (A) (A) (A) (A) (A) (A)
                 (A) (A) (A) (A) (A) (A) (A) (A) (A) (A) (A) (A)
                 (A) (A) (A) (A) (A) (A) (A) (A) (A) (A) (A) (A)
                 (A) (A) (A) (A) (A) (A) (A) (A) (A) (A) (A) (A)
                 (A) (A) (A) (A) (A) (A) (A) (A) (A) (A) (A) (A)
                 (A) (A) (A) (A) (A) (A) (A) (A) (A) (A) (A) (A)
                 (A) (A) (A) (A) (A) (A) (A) (A) (A) (A) (A) (A)
                 (A) (A) (A) (A) (A) (A) (A) (A) (A) (A) (A) (A)
                 (A) (A) (A) (A)
 The electronic state is 2-A.
 Alpha  occ. eigenvalues --  -89.14623 -19.32681 -19.28054  -8.17374  -6.12297
 Alpha  occ. eigenvalues --   -6.12074  -6.11714  -1.21293  -1.13468  -0.78122
 Alpha  occ. eigenvalues --   -0.61711  -0.57050  -0.56235  -0.49931  -0.46692
 Alpha  occ. eigenvalues --   -0.42198  -0.30558
 Alpha virt. eigenvalues --    0.03305   0.06977   0.07767   0.09361   0.10626
 Alpha virt. eigenvalues --    0.12787   0.17309   0.22156   0.24519   0.25181
 Alpha virt. eigenvalues --    0.26560   0.28121   0.30255   0.32512   0.33066
 Alpha virt. eigenvalues --    0.35500   0.36495   0.37908   0.39177   0.40469
 Alpha virt. eigenvalues --    0.41185   0.49264   0.51178   0.68621   0.78639
 Alpha virt. eigenvalues --    0.81595   0.87450   0.88200   0.93931   0.96420
 Alpha virt. eigenvalues --    0.97355   0.97950   1.00542   1.02354   1.05855
 Alpha virt. eigenvalues --    1.09327   1.10356   1.12373   1.14274   1.17783
 Alpha virt. eigenvalues --    1.22774   1.29319   1.33742   1.38266   1.39248
 Alpha virt. eigenvalues --    1.41361   1.67072   1.68536   1.74728   1.80917
 Alpha virt. eigenvalues --    1.92739   2.02276   2.09007   2.09079   2.14495
 Alpha virt. eigenvalues --    2.21079   2.32323   2.37059   2.46225   3.38608
 Alpha virt. eigenvalues --    3.42773   3.45591   3.48115   3.50373   3.53395
 Alpha virt. eigenvalues --    3.56372   3.58282   3.68471   3.70832   4.53715
 Alpha virt. eigenvalues --    4.57729   4.61778   4.71999   4.91231   5.01381
 Alpha virt. eigenvalues --    5.03888   5.04853   5.04964   5.05924   5.09322
 Alpha virt. eigenvalues --    5.10104   5.10719   5.17691   5.22228   5.25183
 Alpha virt. eigenvalues --    5.29019   5.46195   5.52474   5.55409   5.62869
 Alpha virt. eigenvalues --    5.68679   5.85526   5.99002   6.59233   8.78400
 Alpha virt. eigenvalues --   14.32598  14.35798  14.37401  14.39173  14.40580
 Alpha virt. eigenvalues --   14.42800  14.46223  14.48670  14.62014  14.71188
 Alpha virt. eigenvalues --   17.36481  17.61864  17.90536  50.01852  50.11375
 Alpha virt. eigenvalues --  189.82957
  Beta  occ. eigenvalues --  -89.14237 -19.32425 -19.27185  -8.17029  -6.12068
  Beta  occ. eigenvalues --   -6.11505  -6.10836  -1.19985  -1.12150  -0.75649
  Beta  occ. eigenvalues --   -0.60532  -0.56221  -0.52779  -0.47984  -0.43013
  Beta  occ. eigenvalues --   -0.41011
  Beta virt. eigenvalues --   -0.03612   0.03667   0.07318   0.08183   0.09980
  Beta virt. eigenvalues --    0.11711   0.13231   0.17988   0.22323   0.24858
  Beta virt. eigenvalues --    0.25347   0.27071   0.28493   0.30557   0.32646
  Beta virt. eigenvalues --    0.34193   0.35797   0.36817   0.38764   0.40529
  Beta virt. eigenvalues --    0.41324   0.41571   0.49498   0.51765   0.69133
  Beta virt. eigenvalues --    0.79173   0.81905   0.88044   0.88926   0.94546
  Beta virt. eigenvalues --    0.96844   0.98202   0.98945   1.01641   1.02930
  Beta virt. eigenvalues --    1.06613   1.10291   1.12276   1.12789   1.14670
  Beta virt. eigenvalues --    1.18658   1.24063   1.29767   1.35035   1.39018
  Beta virt. eigenvalues --    1.39751   1.41687   1.70242   1.70477   1.76352
  Beta virt. eigenvalues --    1.82491   1.93536   2.03697   2.09678   2.11421
  Beta virt. eigenvalues --    2.14918   2.21581   2.32824   2.38011   2.46592
  Beta virt. eigenvalues --    3.39555   3.44341   3.47763   3.49161   3.51765
  Beta virt. eigenvalues --    3.54201   3.57977   3.59452   3.68976   3.72018
  Beta virt. eigenvalues --    4.54258   4.57896   4.62639   4.72483   4.91816
  Beta virt. eigenvalues --    5.02051   5.04851   5.05517   5.05666   5.06662
  Beta virt. eigenvalues --    5.11971   5.12392   5.13545   5.18421   5.23263
  Beta virt. eigenvalues --    5.26379   5.29690   5.46715   5.53034   5.56217
  Beta virt. eigenvalues --    5.63374   5.69853   5.87203   5.99532   6.59643
  Beta virt. eigenvalues --    8.78758  14.33896  14.38070  14.40215  14.41183
  Beta virt. eigenvalues --   14.42555  14.44116  14.49260  14.50179  14.62719
  Beta virt. eigenvalues --   14.73165  17.37872  17.62155  17.90857  50.02096
  Beta virt. eigenvalues --   50.12145 189.83262
          Condensed to atoms (all electrons):
              1          2          3          4
     1  S   15.347906   0.007854   0.140437   0.011886
     2  O    0.007854   8.360086   0.006484   0.194755
     3  O    0.140437   0.006484   8.242484   0.000824
     4  H    0.011886   0.194755   0.000824   0.325044
 Mulliken atomic charges:
              1
     1  S    0.491917
     2  O   -0.569178
     3  O   -0.390230
     4  H    0.467491
 Sum of Mulliken atomic charges =   0.00000
 Mulliken charges with hydrogens summed into heavy atoms:
              1
     1  S    0.491917
     2  O   -0.101687
     3  O   -0.390230
 Sum of Mulliken charges with hydrogens summed into heavy atoms =   0.00000
          Atomic-Atomic Spin Densities.
              1          2          3          4
     1  S    0.946819  -0.106011  -0.196835  -0.002400
     2  O   -0.106011   0.152943   0.019180  -0.003903
     3  O   -0.196835   0.019180   0.470448  -0.000162
     4  H   -0.002400  -0.003903  -0.000162   0.010053
 Mulliken atomic spin densities:
              1
     1  S    0.641572
     2  O    0.062209
     3  O    0.292631
     4  H    0.003588
 Sum of Mulliken atomic spin densities =   1.00000
 Electronic spatial extent (au):  <R**2>=            178.0625
 Charge=              0.0000 electrons
 Dipole moment (field-independent basis, Debye):
    X=              1.3664    Y=              0.3070    Z=              0.5957  Tot=              1.5219
 Quadrupole moment (field-independent basis, Debye-Ang):
   XX=            -26.7228   YY=            -20.6206   ZZ=            -23.7268
   XY=              3.6908   XZ=              0.7306   YZ=              0.9869
 Traceless Quadrupole moment (field-independent basis, Debye-Ang):
   XX=             -3.0328   YY=              3.0695   ZZ=             -0.0367
   XY=              3.6908   XZ=              0.7306   YZ=              0.9869
 Octapole moment (field-independent basis, Debye-Ang**2):
  XXX=              1.3044  YYY=              6.2804  ZZZ=             -0.0893  XYY=              5.2397
  XXY=              1.3248  XXZ=              0.8899  XZZ=              0.0478  YZZ=              1.1807
  YYZ=              1.2680  XYZ=              1.1730
 Hexadecapole moment (field-independent basis, Debye-Ang**3):
 XXXX=           -142.0526 YYYY=            -51.2234 ZZZZ=            -25.3448 XXXY=              6.1802
 XXXZ=              1.1251 YYYX=              7.5540 YYYZ=              1.8998 ZZZX=              0.3305
 ZZZY=              0.5981 XXYY=            -26.2347 XXZZ=            -27.0991 YYZZ=            -14.1213
 XXYZ=              1.5814 YYXZ=              1.5501 ZZXY=              0.4304
 N-N= 1.108036748468D+02 E-N=-2.279999513459D+03  KE= 8.207276167159D+02
                          Isotropic Fermi Contact Couplings
        Atom                 a.u.       MegaHertz       Gauss      10(-4) cm-1
     1  S(33)              0.10453      35.90316      12.81114      11.97600
     2  O(17)              0.02384     -14.45214      -5.15688      -4.82072
     3  O(17)              0.05131     -31.10089     -11.09757     -10.37414
     4  H(1)               0.00154       6.87664       2.45376       2.29380
 --------------------------------------------------------
       Center         ----  Spin Dipole Couplings  ----
                      3XX-RR        3YY-RR        3ZZ-RR
 --------------------------------------------------------
     1   Atom       -1.507117     -1.608403      3.115520
     2   Atom       -0.248286     -0.202690      0.450976
     3   Atom       -0.759415     -0.759069      1.518484
     4   Atom       -0.005782      0.016232     -0.010451
 --------------------------------------------------------
                        XY            XZ            YZ
 --------------------------------------------------------
     1   Atom       -0.002969     -0.061030      0.222449
     2   Atom        0.007823      0.018849     -0.138790
     3   Atom        0.005753      0.076259      0.042914
     4   Atom        0.005573      0.001169      0.004352
 --------------------------------------------------------


 ---------------------------------------------------------------------------------
              Anisotropic Spin Dipole Couplings in Principal Axis System
 ---------------------------------------------------------------------------------

       Atom             a.u.   MegaHertz   Gauss  10(-4) cm-1        Axes

              Baa    -1.6189   -66.372   -23.683   -22.139  0.0009  0.9989 -0.0469
     1 S(33)  Bbb    -1.5079   -61.823   -22.060   -20.622  0.9999 -0.0003  0.0132
              Bcc     3.1268   128.195    45.743    42.761 -0.0132  0.0469  0.9988
 
              Baa    -0.2543    18.399     6.565     6.137  0.8979 -0.4267 -0.1080
     2 O(17)  Bbb    -0.2253    16.306     5.818     5.439  0.4396  0.8822  0.1688
              Bcc     0.4796   -34.705   -12.384   -11.576  0.0232 -0.1990  0.9797
 
              Baa    -0.7654    55.381    19.761    18.473  0.7856 -0.6185 -0.0146
     3 O(17)  Bbb    -0.7565    54.739    19.532    18.259  0.6178  0.7855 -0.0355
              Bcc     1.5218  -110.120   -39.294   -36.732  0.0335  0.0189  0.9993
 
              Baa    -0.0112    -5.955    -2.125    -1.986 -0.0660 -0.1435  0.9875
     4 H(1)   Bbb    -0.0071    -3.793    -1.353    -1.265  0.9709 -0.2375  0.0303
              Bcc     0.0183     9.748     3.478     3.251  0.2302  0.9607  0.1550
 

 ---------------------------------------------------------------------------------

 1\1\ CPUSERV-QCEXNOD01\SP\UwB97XD\6-311+G(3df)\H1O2S1(2)\ROOT\21-Aug-2
 025\0\\#sp wB97XD/6-311+G(3df)\\Optimizacion del hoso\\0,2\S,0,-0.1388
 43,-0.474008,0.016308\O,0,1.310132,0.247471,-0.04804\O,0,-1.185636,0.5
 45438,-0.020037\H,0,1.215021,1.311345,0.306181\\Version=EM64L-G09RevC.
 01\State=2-A\HF=-549.2046502\S2=0.755448\S2-1=0.\S2A=0.750021\RMSD=9.5
 89e-09\Dipole=0.5369468,0.11992,0.2362465\Quadrupole=-2.2753445,2.2840
 255,-0.008681,2.7204538,0.5708737,0.7651552\PG=C01 [X(H1O2S1)]\\@


 TOWERING GENIUS DISDAINS A BEATEN PATH.  IT SEEKS 
 REGIONS HITHERTO UNEXPLORED.

                                -- ABRAHAM LINCOLN
 Job cpu time:  0 days  0 hours  3 minutes 13.2 seconds.
 File lengths (MBytes):  RWF=     21 Int=      0 D2E=      0 Chk=      2 Scr=      1
 Normal termination of Gaussian 09 at Thu Aug 21 00:36:54 2025.
