 Entering Gaussian System, Link 0=g09
 Initial command:
 /soft/g09.c01/g09/l1.exe /scr/macias/389574.qcexmaster_vib1_0.15/Gau-2955.inp -scrdir=/scr/macias/389574.qcexmaster_vib1_0.15/
 Entering Link 1 = /soft/g09.c01/g09/l1.exe PID=      2961.
  
 Copyright (c) 1988,1990,1992,1993,1995,1998,2003,2009,2011,
            Gaussian, Inc.  All Rights Reserved.
  
 This is part of the Gaussian(R) 09 program.  It is based on
 the Gaussian(R) 03 system (copyright 2003, Gaussian, Inc.),
 the Gaussian(R) 98 system (copyright 1998, Gaussian, Inc.),
 the Gaussian(R) 94 system (copyright 1995, Gaussian, Inc.),
 the Gaussian 92(TM) system (copyright 1992, Gaussian, Inc.),
 the Gaussian 90(TM) system (copyright 1990, Gaussian, Inc.),
 the Gaussian 88(TM) system (copyright 1988, Gaussian, Inc.),
 the Gaussian 86(TM) system (copyright 1986, Carnegie Mellon
 University), and the Gaussian 82(TM) system (copyright 1983,
 Carnegie Mellon University). Gaussian is a federally registered
 trademark of Gaussian, Inc.
  
 This software contains proprietary and confidential information,
 including trade secrets, belonging to Gaussian, Inc.
  
 This software is provided under written license and may be
 used, copied, transmitted, or stored only in accord with that
 written license.
  
 The following legend is applicable only to US Government
 contracts under FAR:
  
                    RESTRICTED RIGHTS LEGEND
  
 Use, reproduction and disclosure by the US Government is
 subject to restrictions as set forth in subparagraphs (a)
 and (c) of the Commercial Computer Software - Restricted
 Rights clause in FAR 52.227-19.
  
 Gaussian, Inc.
 340 Quinnipiac St., Bldg. 40, Wallingford CT 06492
  
  
 ---------------------------------------------------------------
 Warning -- This program may not be used in any manner that
 competes with the business of Gaussian, Inc. or will provide
 assistance to any competitor of Gaussian, Inc.  The licensee
 of this program is prohibited from giving any competitor of
 Gaussian, Inc. access to this program.  By using this program,
 the user acknowledges that Gaussian, Inc. is engaged in the
 business of creating and licensing software in the field of
 computational chemistry and represents and warrants to the
 licensee that it is not a competitor of Gaussian, Inc. and that
 it will not use this program in any manner prohibited above.
 ---------------------------------------------------------------
  

 Cite this work as:
 Gaussian 09, Revision C.01,
 M. J. Frisch, G. W. Trucks, H. B. Schlegel, G. E. Scuseria, 
 M. A. Robb, J. R. Cheeseman, G. Scalmani, V. Barone, B. Mennucci, 
 G. A. Petersson, H. Nakatsuji, M. Caricato, X. Li, H. P. Hratchian, 
 A. F. Izmaylov, J. Bloino, G. Zheng, J. L. Sonnenberg, M. Hada, 
 M. Ehara, K. Toyota, R. Fukuda, J. Hasegawa, M. Ishida, T. Nakajima, 
 Y. Honda, O. Kitao, H. Nakai, T. Vreven, J. A. Montgomery, Jr., 
 J. E. Peralta, F. Ogliaro, M. Bearpark, J. J. Heyd, E. Brothers, 
 K. N. Kudin, V. N. Staroverov, T. Keith, R. Kobayashi, J. Normand, 
 K. Raghavachari, A. Rendell, J. C. Burant, S. S. Iyengar, J. Tomasi, 
 M. Cossi, N. Rega, J. M. Millam, M. Klene, J. E. Knox, J. B. Cross, 
 V. Bakken, C. Adamo, J. Jaramillo, R. Gomperts, R. E. Stratmann, 
 O. Yazyev, A. J. Austin, R. Cammi, C. Pomelli, J. W. Ochterski, 
 R. L. Martin, K. Morokuma, V. G. Zakrzewski, G. A. Voth, 
 P. Salvador, J. J. Dannenberg, S. Dapprich, A. D. Daniels, 
 O. Farkas, J. B. Foresman, J. V. Ortiz, J. Cioslowski, 
 and D. J. Fox, Gaussian, Inc., Wallingford CT, 2010.
 
  
 -----  Compilado por  -----------------------------------------
  
  Servicio de Calculo | Servicio de Informatica U. de Valencia
     calculo@uv.es    |  E-46100 Burjassot (Valencia) SPAIN
  
 ---------------------------------------------------------------
  
 ******************************************
 Gaussian 09:  EM64L-G09RevC.01 23-Sep-2011
                21-Aug-2025 
 ******************************************
 %chk=opt_freq.chk
 %nproc=6
 Will use up to    6 processors via shared memory.
 %mem=20GB
 Default route:  CacheSize=131072
 -----------------------
 #sp wB97XD/6-311+G(3df)
 -----------------------
 1/4=131072,38=1/1;
 2/4=131072,12=2,17=6,18=5,40=1/2;
 3/4=131072,5=4,6=6,7=16,11=2,16=1,25=1,30=1,74=-58/1,2,3;
 4/4=131072/1;
 5/4=131072,5=2,38=5/2;
 6/4=131072,7=2,8=2,9=2,10=2,28=1/1;
 99/4=131072,5=1,9=1/99;
 ---------------------
 Optimizacion del hoso
 ---------------------
 Charge =  0 Multiplicity = 2
 Symbolic Z-Matrix:
 S                    -0.13884  -0.47101   0.02081 
 O                     1.31013   0.25647  -0.05704 
 O                    -1.19014   0.54244  -0.02604 
 H                     1.26902   1.12384   0.39468 
 
                          Input orientation:                          
 ---------------------------------------------------------------------
 Center     Atomic      Atomic             Coordinates (Angstroms)
 Number     Number       Type             X           Y           Z
 ---------------------------------------------------------------------
      1         16           0       -0.138843   -0.471008    0.020808
      2          8           0        1.310132    0.256471   -0.057040
      3          8           0       -1.190136    0.542438   -0.026037
      4          1           0        1.269021    1.123845    0.394681
 ---------------------------------------------------------------------
                    Distance matrix (angstroms):
                    1          2          3          4
     1  S    0.000000
     2  O    1.623211   0.000000
     3  O    1.460987   2.516760   0.000000
     4  H    2.159958   0.978815   2.561736   0.000000
 Stoichiometry    HO2S(2)
 Framework group  C1[X(HO2S)]
 Deg. of freedom     6
 Full point group                 C1      NOp   1
 Largest Abelian subgroup         C1      NOp   1
 Largest concise Abelian subgroup C1      NOp   1
                         Standard orientation:                         
 ---------------------------------------------------------------------
 Center     Atomic      Atomic             Coordinates (Angstroms)
 Number     Number       Type             X           Y           Z
 ---------------------------------------------------------------------
      1         16           0       -0.138904   -0.470238    0.023003
      2          8           0        1.309614    0.256871   -0.066013
      3          8           0       -1.190569    0.542650   -0.027404
      4          1           0        1.270099    1.127634    0.379285
 ---------------------------------------------------------------------
 Rotational constants (GHZ):     35.3892450      9.6071641      7.6065936
 Standard basis: 6-311+G(3df) (5D, 7F)
 There are   128 symmetry adapted basis functions of A   symmetry.
 Integral buffers will be    131072 words long.
 Raffenetti 2 integral format.
 Two-electron integral symmetry is turned on.
   128 basis functions,   193 primitive gaussians,   146 cartesian basis functions
    17 alpha electrons       16 beta electrons
       nuclear repulsion energy       111.4453130469 Hartrees.
 NAtoms=    4 NActive=    4 NUniq=    4 SFac= 1.00D+00 NAtFMM=   60 NAOKFM=F Big=F
 Nuclear repulsion after empirical dispersion term =      111.4450531176 Hartrees.
 One-electron integrals computed using PRISM.
 NBasis=   128 RedAO= T  NBF=   128
 NBsUse=   128 1.00D-06 NBFU=   128
 Harris functional with IExCor= 4639 diagonalized for initial guess.
 ExpMin= 4.05D-02 ExpMax= 9.34D+04 ExpMxC= 3.17D+03 IAcc=2 IRadAn=         4 AccDes= 0.00D+00
 HarFok:  IExCor= 4639 AccDes= 0.00D+00 IRadAn=         4 IDoV= 1
 ScaDFX=  1.000000  1.000000  1.000000  1.000000
 FoFCou: FMM=F IPFlag=           0 FMFlag=      100000 FMFlg1=           0
         NFxFlg=           0 DoJE=T BraDBF=F KetDBF=T FulRan=T
         Omega=  0.000000  0.000000  1.000000  0.000000  0.000000 ICntrl=     500 IOpCl=  0
         NMat0=    1 NMatS0=    1 NMatT0=    0 NMatD0=    1 NMtDS0=    0 NMtDT0=    0
         I1Cent=           4 NGrid=           0.
 Petite list used in FoFCou.
 Initial guess orbital symmetries:
 Alpha Orbitals:
       Occupied  (A) (A) (A) (A) (A) (A) (A) (A) (A) (A) (A) (A)
                 (A) (A) (A) (A) (A)
       Virtual   (A) (A) (A) (A) (A) (A) (A) (A) (A) (A) (A) (A)
                 (A) (A) (A) (A) (A) (A) (A) (A) (A) (A) (A) (A)
                 (A) (A) (A) (A) (A) (A) (A) (A) (A) (A) (A) (A)
                 (A) (A) (A) (A) (A) (A) (A) (A) (A) (A) (A) (A)
                 (A) (A) (A) (A) (A) (A) (A) (A) (A) (A) (A) (A)
                 (A) (A) (A) (A) (A) (A) (A) (A) (A) (A) (A) (A)
                 (A) (A) (A) (A) (A) (A) (A) (A) (A) (A) (A) (A)
                 (A) (A) (A) (A) (A) (A) (A) (A) (A) (A) (A) (A)
                 (A) (A) (A) (A) (A) (A) (A) (A) (A) (A) (A) (A)
                 (A) (A) (A)
 Beta  Orbitals:
       Occupied  (A) (A) (A) (A) (A) (A) (A) (A) (A) (A) (A) (A)
                 (A) (A) (A) (A)
       Virtual   (A) (A) (A) (A) (A) (A) (A) (A) (A) (A) (A) (A)
                 (A) (A) (A) (A) (A) (A) (A) (A) (A) (A) (A) (A)
                 (A) (A) (A) (A) (A) (A) (A) (A) (A) (A) (A) (A)
                 (A) (A) (A) (A) (A) (A) (A) (A) (A) (A) (A) (A)
                 (A) (A) (A) (A) (A) (A) (A) (A) (A) (A) (A) (A)
                 (A) (A) (A) (A) (A) (A) (A) (A) (A) (A) (A) (A)
                 (A) (A) (A) (A) (A) (A) (A) (A) (A) (A) (A) (A)
                 (A) (A) (A) (A) (A) (A) (A) (A) (A) (A) (A) (A)
                 (A) (A) (A) (A) (A) (A) (A) (A) (A) (A) (A) (A)
                 (A) (A) (A) (A)
 The electronic state of the initial guess is 2-A.
 Initial guess <Sx>= 0.0000 <Sy>= 0.0000 <Sz>= 0.5000 <S**2>= 0.7500 S= 0.5000
 Requested convergence on RMS density matrix=1.00D-08 within 128 cycles.
 Requested convergence on MAX density matrix=1.00D-06.
 Requested convergence on             energy=1.00D-06.
 No special actions if energy rises.
 FoFJK:  IHMeth= 1 ICntrl=     0 DoSepK=T KAlg= 1 I1Cent= 0 FoldK=F
 FoFJK:  IHMeth= 1 ICntrl=     0 DoSepK=T KAlg= 1 I1Cent= 0 FoldK=F
 FoFJK:  IHMeth= 1 ICntrl=     0 DoSepK=T KAlg= 1 I1Cent= 0 FoldK=F
 FoFJK:  IHMeth= 1 ICntrl=     0 DoSepK=T KAlg= 1 I1Cent= 0 FoldK=F
 FoFJK:  IHMeth= 1 ICntrl=     0 DoSepK=T KAlg= 1 I1Cent= 0 FoldK=F
 FoFJK:  IHMeth= 1 ICntrl=     0 DoSepK=T KAlg= 1 I1Cent= 0 FoldK=F
 FoFJK:  IHMeth= 1 ICntrl=     0 DoSepK=T KAlg= 1 I1Cent= 0 FoldK=F
 FoFJK:  IHMeth= 1 ICntrl=     0 DoSepK=T KAlg= 1 I1Cent= 0 FoldK=F
 FoFJK:  IHMeth= 1 ICntrl=     0 DoSepK=T KAlg= 1 I1Cent= 0 FoldK=F
 FoFJK:  IHMeth= 1 ICntrl=     0 DoSepK=T KAlg= 1 I1Cent= 0 FoldK=F
 FoFJK:  IHMeth= 1 ICntrl=     0 DoSepK=T KAlg= 1 I1Cent= 0 FoldK=F
 FoFJK:  IHMeth= 1 ICntrl=     0 DoSepK=T KAlg= 1 I1Cent= 0 FoldK=F
 FoFJK:  IHMeth= 1 ICntrl=     0 DoSepK=T KAlg= 1 I1Cent= 0 FoldK=F
 FoFJK:  IHMeth= 1 ICntrl=     0 DoSepK=T KAlg= 1 I1Cent= 0 FoldK=F
 FoFJK:  IHMeth= 1 ICntrl=     0 DoSepK=T KAlg= 1 I1Cent= 0 FoldK=F
 SCF Done:  E(UwB97XD) =  -549.221093952     A.U. after   15 cycles
             Convg  =    0.8108D-08             -V/T =  2.0017
 <Sx>= 0.0000 <Sy>= 0.0000 <Sz>= 0.5000 <S**2>= 0.7555 S= 0.5028
 <L.S>= 0.000000000000E+00
 Annihilation of the first spin contaminant:
 S**2 before annihilation     0.7555,   after     0.7500

 **********************************************************************

            Population analysis using the SCF density.

 **********************************************************************

 Orbital symmetries:
 Alpha Orbitals:
       Occupied  (A) (A) (A) (A) (A) (A) (A) (A) (A) (A) (A) (A)
                 (A) (A) (A) (A) (A)
       Virtual   (A) (A) (A) (A) (A) (A) (A) (A) (A) (A) (A) (A)
                 (A) (A) (A) (A) (A) (A) (A) (A) (A) (A) (A) (A)
                 (A) (A) (A) (A) (A) (A) (A) (A) (A) (A) (A) (A)
                 (A) (A) (A) (A) (A) (A) (A) (A) (A) (A) (A) (A)
                 (A) (A) (A) (A) (A) (A) (A) (A) (A) (A) (A) (A)
                 (A) (A) (A) (A) (A) (A) (A) (A) (A) (A) (A) (A)
                 (A) (A) (A) (A) (A) (A) (A) (A) (A) (A) (A) (A)
                 (A) (A) (A) (A) (A) (A) (A) (A) (A) (A) (A) (A)
                 (A) (A) (A) (A) (A) (A) (A) (A) (A) (A) (A) (A)
                 (A) (A) (A)
 Beta  Orbitals:
       Occupied  (A) (A) (A) (A) (A) (A) (A) (A) (A) (A) (A) (A)
                 (A) (A) (A) (A)
       Virtual   (A) (A) (A) (A) (A) (A) (A) (A) (A) (A) (A) (A)
                 (A) (A) (A) (A) (A) (A) (A) (A) (A) (A) (A) (A)
                 (A) (A) (A) (A) (A) (A) (A) (A) (A) (A) (A) (A)
                 (A) (A) (A) (A) (A) (A) (A) (A) (A) (A) (A) (A)
                 (A) (A) (A) (A) (A) (A) (A) (A) (A) (A) (A) (A)
                 (A) (A) (A) (A) (A) (A) (A) (A) (A) (A) (A) (A)
                 (A) (A) (A) (A) (A) (A) (A) (A) (A) (A) (A) (A)
                 (A) (A) (A) (A) (A) (A) (A) (A) (A) (A) (A) (A)
                 (A) (A) (A) (A) (A) (A) (A) (A) (A) (A) (A) (A)
                 (A) (A) (A) (A)
 The electronic state is 2-A.
 Alpha  occ. eigenvalues --  -89.14831 -19.31882 -19.28348  -8.17578  -6.12507
 Alpha  occ. eigenvalues --   -6.12273  -6.11915  -1.22311  -1.14888  -0.79838
 Alpha  occ. eigenvalues --   -0.63354  -0.57406  -0.56323  -0.50765  -0.46699
 Alpha  occ. eigenvalues --   -0.42474  -0.31105
 Alpha virt. eigenvalues --    0.04819   0.06844   0.07693   0.09335   0.11921
 Alpha virt. eigenvalues --    0.13618   0.18629   0.22215   0.24638   0.25209
 Alpha virt. eigenvalues --    0.26272   0.28338   0.29921   0.32598   0.32855
 Alpha virt. eigenvalues --    0.35566   0.36316   0.38136   0.39587   0.40690
 Alpha virt. eigenvalues --    0.40939   0.50380   0.56056   0.67827   0.78437
 Alpha virt. eigenvalues --    0.82467   0.86975   0.88098   0.92971   0.96057
 Alpha virt. eigenvalues --    0.96650   0.98061   1.00012   1.01810   1.06045
 Alpha virt. eigenvalues --    1.09117   1.10476   1.12858   1.14174   1.17801
 Alpha virt. eigenvalues --    1.22236   1.28444   1.33647   1.38027   1.40306
 Alpha virt. eigenvalues --    1.43156   1.66989   1.68389   1.74343   1.81629
 Alpha virt. eigenvalues --    1.92361   2.01484   2.08546   2.09103   2.13184
 Alpha virt. eigenvalues --    2.20960   2.31123   2.36799   2.43882   3.38176
 Alpha virt. eigenvalues --    3.42431   3.44956   3.47430   3.50363   3.55447
 Alpha virt. eigenvalues --    3.56873   3.62981   3.70177   3.71210   4.53295
 Alpha virt. eigenvalues --    4.57326   4.61764   4.71077   4.90627   4.99202
 Alpha virt. eigenvalues --    5.03640   5.03894   5.04558   5.07094   5.09072
 Alpha virt. eigenvalues --    5.09971   5.11411   5.17353   5.23789   5.24496
 Alpha virt. eigenvalues --    5.41873   5.46606   5.53251   5.57613   5.67358
 Alpha virt. eigenvalues --    5.70878   5.85559   5.99350   6.58337   8.78028
 Alpha virt. eigenvalues --   14.32739  14.35693  14.37002  14.38946  14.41574
 Alpha virt. eigenvalues --   14.45100  14.47003  14.48755  14.62483  14.70925
 Alpha virt. eigenvalues --   17.36376  17.61281  17.90359  50.02552  50.11130
 Alpha virt. eigenvalues --  189.82594
  Beta  occ. eigenvalues --  -89.14448 -19.31668 -19.27443  -8.17236  -6.12279
  Beta  occ. eigenvalues --   -6.11709  -6.11042  -1.21173  -1.13431  -0.77535
  Beta  occ. eigenvalues --   -0.61944  -0.56450  -0.53387  -0.48131  -0.43515
  Beta  occ. eigenvalues --   -0.41235
  Beta virt. eigenvalues --   -0.03989   0.05263   0.07201   0.08125   0.09929
  Beta virt. eigenvalues --    0.12836   0.14417   0.18966   0.22429   0.24913
  Beta virt. eigenvalues --    0.25490   0.26611   0.28732   0.30364   0.32766
  Beta virt. eigenvalues --    0.33904   0.35855   0.36745   0.38755   0.40553
  Beta virt. eigenvalues --    0.41148   0.42222   0.50929   0.56339   0.68340
  Beta virt. eigenvalues --    0.78963   0.82640   0.87748   0.88664   0.93584
  Beta virt. eigenvalues --    0.96480   0.97651   0.99025   1.00892   1.02650
  Beta virt. eigenvalues --    1.06727   1.09995   1.12312   1.13493   1.14563
  Beta virt. eigenvalues --    1.18684   1.23445   1.28910   1.34944   1.38847
  Beta virt. eigenvalues --    1.40696   1.43525   1.70154   1.70307   1.75949
  Beta virt. eigenvalues --    1.83140   1.93214   2.02866   2.09262   2.11427
  Beta virt. eigenvalues --    2.13601   2.21472   2.31602   2.37762   2.44347
  Beta virt. eigenvalues --    3.38945   3.43953   3.47142   3.48571   3.51711
  Beta virt. eigenvalues --    3.57268   3.58156   3.63716   3.70744   3.72201
  Beta virt. eigenvalues --    4.53828   4.57487   4.62644   4.71557   4.91219
  Beta virt. eigenvalues --    4.99680   5.04406   5.04482   5.05252   5.08410
  Beta virt. eigenvalues --    5.11775   5.12923   5.13533   5.18195   5.24751
  Beta virt. eigenvalues --    5.25844   5.42415   5.47106   5.53961   5.58318
  Beta virt. eigenvalues --    5.68216   5.71541   5.87254   5.99885   6.58740
  Beta virt. eigenvalues --    8.78391  14.33833  14.38007  14.40075  14.41002
  Beta virt. eigenvalues --   14.43817  14.46839  14.48988  14.50532  14.63057
  Beta virt. eigenvalues --   14.72991  17.37758  17.61568  17.90681  50.02761
  Beta virt. eigenvalues --   50.11930 189.82896
          Condensed to atoms (all electrons):
              1          2          3          4
     1  S   15.368241  -0.014034   0.140913   0.005570
     2  O   -0.014034   8.412010   0.006246   0.209838
     3  O    0.140913   0.006246   8.231888  -0.001778
     4  H    0.005570   0.209838  -0.001778   0.294351
 Mulliken atomic charges:
              1
     1  S    0.499310
     2  O   -0.614060
     3  O   -0.377269
     4  H    0.492019
 Sum of Mulliken atomic charges =   0.00000
 Mulliken charges with hydrogens summed into heavy atoms:
              1
     1  S    0.499310
     2  O   -0.122041
     3  O   -0.377269
 Sum of Mulliken charges with hydrogens summed into heavy atoms =   0.00000
          Atomic-Atomic Spin Densities.
              1          2          3          4
     1  S    0.931988  -0.092827  -0.195677  -0.005237
     2  O   -0.092827   0.130479   0.016704  -0.004634
     3  O   -0.195677   0.016704   0.485838   0.000769
     4  H   -0.005237  -0.004634   0.000769   0.013498
 Mulliken atomic spin densities:
              1
     1  S    0.638247
     2  O    0.049722
     3  O    0.307634
     4  H    0.004396
 Sum of Mulliken atomic spin densities =   1.00000
 Electronic spatial extent (au):  <R**2>=            177.4317
 Charge=              0.0000 electrons
 Dipole moment (field-independent basis, Debye):
    X=              1.3587    Y=              0.0416    Z=              0.7851  Tot=              1.5698
 Quadrupole moment (field-independent basis, Debye-Ang):
   XX=            -26.4278   YY=            -21.3708   ZZ=            -23.3723
   XY=              3.3949   XZ=              1.0556   YZ=              1.1839
 Traceless Quadrupole moment (field-independent basis, Debye-Ang):
   XX=             -2.7042   YY=              2.3528   ZZ=              0.3513
   XY=              3.3949   XZ=              1.0556   YZ=              1.1839
 Octapole moment (field-independent basis, Debye-Ang**2):
  XXX=              1.9287  YYY=              4.7521  ZZZ=              0.0491  XYY=              4.3330
  XXY=              1.3115  XXZ=              1.3682  XZZ=              0.4318  YZZ=              1.4039
  YYZ=              1.3431  XYZ=              1.4761
 Hexadecapole moment (field-independent basis, Debye-Ang**3):
 XXXX=           -140.9792 YYYY=            -51.9272 ZZZZ=            -25.1172 XXXY=              6.5279
 XXXZ=              1.9937 YYYX=              5.8063 YYYZ=              1.8624 ZZZX=              0.6378
 ZZZY=              0.9010 XXYY=            -26.7489 XXZZ=            -26.5574 YYZZ=            -13.5449
 XXYZ=              2.0789 YYXZ=              1.7137 ZZXY=              0.7195
 N-N= 1.114450531176D+02 E-N=-2.281972030609D+03  KE= 8.210228440982D+02
                          Isotropic Fermi Contact Couplings
        Atom                 a.u.       MegaHertz       Gauss      10(-4) cm-1
     1  S(33)              0.10267      35.26577      12.58370      11.76339
     2  O(17)              0.02457     -14.89520      -5.31498      -4.96850
     3  O(17)              0.05286     -32.04132     -11.43314     -10.68783
     4  H(1)               0.00325      14.52498       5.18287       4.84501
 --------------------------------------------------------
       Center         ----  Spin Dipole Couplings  ----
                      3XX-RR        3YY-RR        3ZZ-RR
 --------------------------------------------------------
     1   Atom       -1.496279     -1.599232      3.095512
     2   Atom       -0.212433     -0.164308      0.376741
     3   Atom       -0.785903     -0.790960      1.576862
     4   Atom       -0.006925      0.017779     -0.010854
 --------------------------------------------------------
                        XY            XZ            YZ
 --------------------------------------------------------
     1   Atom       -0.005445     -0.065177      0.253935
     2   Atom        0.007977      0.009045     -0.137925
     3   Atom        0.008140      0.109700      0.070827
     4   Atom        0.006693      0.001865      0.007137
 --------------------------------------------------------


 ---------------------------------------------------------------------------------
              Anisotropic Spin Dipole Couplings in Principal Axis System
 ---------------------------------------------------------------------------------

       Atom             a.u.   MegaHertz   Gauss  10(-4) cm-1        Axes

              Baa    -1.6130   -66.130   -23.597   -22.059  0.0166  0.9984 -0.0536
     1 S(33)  Bbb    -1.4972   -61.383   -21.903   -20.475  0.9998 -0.0159  0.0151
              Bcc     3.1101   127.513    45.500    42.534 -0.0142  0.0539  0.9984
 
              Baa    -0.2174    15.730     5.613     5.247  0.8963 -0.4288 -0.1132
     2 O(17)  Bbb    -0.1926    13.933     4.972     4.648  0.4433  0.8728  0.2044
              Bcc     0.4099   -29.664   -10.585    -9.895  0.0111 -0.2334  0.9723
 
              Baa    -0.7970    57.670    20.578    19.237 -0.6281  0.7781  0.0058
     3 O(17)  Bbb    -0.7871    56.952    20.322    18.997  0.7768  0.6274 -0.0548
              Bcc     1.5841  -114.623   -40.900   -38.234  0.0463  0.0299  0.9985
 
              Baa    -0.0126    -6.698    -2.390    -2.234 -0.0681 -0.2142  0.9744
     4 H(1)   Bbb    -0.0086    -4.600    -1.641    -1.534  0.9684 -0.2490  0.0129
              Bcc     0.0212    11.298     4.031     3.768  0.2399  0.9445  0.2244
 

 ---------------------------------------------------------------------------------

 1\1\ CPUSERV-QCEXNOD09\SP\UwB97XD\6-311+G(3df)\H1O2S1(2)\ROOT\21-Aug-2
 025\0\\#sp wB97XD/6-311+G(3df)\\Optimizacion del hoso\\0,2\S,0,-0.1388
 43,-0.471008,0.020808\O,0,1.310132,0.256471,-0.05704\O,0,-1.190136,0.5
 42438,-0.026037\H,0,1.269021,1.123845,0.394681\\Version=EM64L-G09RevC.
 01\State=2-A\HF=-549.221094\S2=0.755528\S2-1=0.\S2A=0.750021\RMSD=8.10
 8e-09\Dipole=0.5333481,0.0139413,0.3110733\Quadrupole=-2.0157505,1.734
 8828,0.2808678,2.5152576,0.7951303,0.9010734\PG=C01 [X(H1O2S1)]\\@


 THERE IS SOMETHING FASCINATING ABOUT SCIENCE.
 ONE GETS SUCH WHOLESALE CONJECTURE OUT OF SUCH TRIFLING INVESTMENTS.

                                                       -- MARK TWAIN
 Job cpu time:  0 days  0 hours  3 minutes 34.1 seconds.
 File lengths (MBytes):  RWF=     21 Int=      0 D2E=      0 Chk=      2 Scr=      1
 Normal termination of Gaussian 09 at Thu Aug 21 00:36:01 2025.
