 Entering Gaussian System, Link 0=g09
 Initial command:
 /soft/g09.c01/g09/l1.exe /scr/macias/389566.qcexmaster_vib6_0.20/Gau-2464.inp -scrdir=/scr/macias/389566.qcexmaster_vib6_0.20/
 Entering Link 1 = /soft/g09.c01/g09/l1.exe PID=      2468.
  
 Copyright (c) 1988,1990,1992,1993,1995,1998,2003,2009,2011,
            Gaussian, Inc.  All Rights Reserved.
  
 This is part of the Gaussian(R) 09 program.  It is based on
 the Gaussian(R) 03 system (copyright 2003, Gaussian, Inc.),
 the Gaussian(R) 98 system (copyright 1998, Gaussian, Inc.),
 the Gaussian(R) 94 system (copyright 1995, Gaussian, Inc.),
 the Gaussian 92(TM) system (copyright 1992, Gaussian, Inc.),
 the Gaussian 90(TM) system (copyright 1990, Gaussian, Inc.),
 the Gaussian 88(TM) system (copyright 1988, Gaussian, Inc.),
 the Gaussian 86(TM) system (copyright 1986, Carnegie Mellon
 University), and the Gaussian 82(TM) system (copyright 1983,
 Carnegie Mellon University). Gaussian is a federally registered
 trademark of Gaussian, Inc.
  
 This software contains proprietary and confidential information,
 including trade secrets, belonging to Gaussian, Inc.
  
 This software is provided under written license and may be
 used, copied, transmitted, or stored only in accord with that
 written license.
  
 The following legend is applicable only to US Government
 contracts under FAR:
  
                    RESTRICTED RIGHTS LEGEND
  
 Use, reproduction and disclosure by the US Government is
 subject to restrictions as set forth in subparagraphs (a)
 and (c) of the Commercial Computer Software - Restricted
 Rights clause in FAR 52.227-19.
  
 Gaussian, Inc.
 340 Quinnipiac St., Bldg. 40, Wallingford CT 06492
  
  
 ---------------------------------------------------------------
 Warning -- This program may not be used in any manner that
 competes with the business of Gaussian, Inc. or will provide
 assistance to any competitor of Gaussian, Inc.  The licensee
 of this program is prohibited from giving any competitor of
 Gaussian, Inc. access to this program.  By using this program,
 the user acknowledges that Gaussian, Inc. is engaged in the
 business of creating and licensing software in the field of
 computational chemistry and represents and warrants to the
 licensee that it is not a competitor of Gaussian, Inc. and that
 it will not use this program in any manner prohibited above.
 ---------------------------------------------------------------
  

 Cite this work as:
 Gaussian 09, Revision C.01,
 M. J. Frisch, G. W. Trucks, H. B. Schlegel, G. E. Scuseria, 
 M. A. Robb, J. R. Cheeseman, G. Scalmani, V. Barone, B. Mennucci, 
 G. A. Petersson, H. Nakatsuji, M. Caricato, X. Li, H. P. Hratchian, 
 A. F. Izmaylov, J. Bloino, G. Zheng, J. L. Sonnenberg, M. Hada, 
 M. Ehara, K. Toyota, R. Fukuda, J. Hasegawa, M. Ishida, T. Nakajima, 
 Y. Honda, O. Kitao, H. Nakai, T. Vreven, J. A. Montgomery, Jr., 
 J. E. Peralta, F. Ogliaro, M. Bearpark, J. J. Heyd, E. Brothers, 
 K. N. Kudin, V. N. Staroverov, T. Keith, R. Kobayashi, J. Normand, 
 K. Raghavachari, A. Rendell, J. C. Burant, S. S. Iyengar, J. Tomasi, 
 M. Cossi, N. Rega, J. M. Millam, M. Klene, J. E. Knox, J. B. Cross, 
 V. Bakken, C. Adamo, J. Jaramillo, R. Gomperts, R. E. Stratmann, 
 O. Yazyev, A. J. Austin, R. Cammi, C. Pomelli, J. W. Ochterski, 
 R. L. Martin, K. Morokuma, V. G. Zakrzewski, G. A. Voth, 
 P. Salvador, J. J. Dannenberg, S. Dapprich, A. D. Daniels, 
 O. Farkas, J. B. Foresman, J. V. Ortiz, J. Cioslowski, 
 and D. J. Fox, Gaussian, Inc., Wallingford CT, 2010.
 
  
 -----  Compilado por  -----------------------------------------
  
  Servicio de Calculo | Servicio de Informatica U. de Valencia
     calculo@uv.es    |  E-46100 Burjassot (Valencia) SPAIN
  
 ---------------------------------------------------------------
  
 ******************************************
 Gaussian 09:  EM64L-G09RevC.01 23-Sep-2011
                21-Aug-2025 
 ******************************************
 %chk=opt_freq.chk
 %nproc=6
 Will use up to    6 processors via shared memory.
 %mem=20GB
 Default route:  CacheSize=131072
 -----------------------
 #sp wB97XD/6-311+G(3df)
 -----------------------
 1/4=131072,38=1/1;
 2/4=131072,12=2,17=6,18=5,40=1/2;
 3/4=131072,5=4,6=6,7=16,11=2,16=1,25=1,30=1,74=-58/1,2,3;
 4/4=131072/1;
 5/4=131072,5=2,38=5/2;
 6/4=131072,7=2,8=2,9=2,10=2,28=1/1;
 99/4=131072,5=1,9=1/99;
 ---------------------
 Optimizacion del hoso
 ---------------------
 Charge =  0 Multiplicity = 2
 Symbolic Z-Matrix:
 S                    -0.13884  -0.47401   0.01631 
 O                     1.31013   0.26847  -0.04104 
 O                    -1.18564   0.54544  -0.02004 
 H                     1.23952   0.97885   0.19768 
 
                          Input orientation:                          
 ---------------------------------------------------------------------
 Center     Atomic      Atomic             Coordinates (Angstroms)
 Number     Number       Type             X           Y           Z
 ---------------------------------------------------------------------
      1         16           0       -0.138843   -0.474008    0.016308
      2          8           0        1.310132    0.268471   -0.041040
      3          8           0       -1.185636    0.545438   -0.020037
      4          1           0        1.239521    0.978845    0.197681
 ---------------------------------------------------------------------
                    Distance matrix (angstroms):
                    1          2          3          4
     1  S    0.000000
     2  O    1.629139   0.000000
     3  O    1.461632   2.511177   0.000000
     4  H    2.010862   0.752732   2.473182   0.000000
 Stoichiometry    HO2S(2)
 Framework group  C1[X(HO2S)]
 Deg. of freedom     6
 Full point group                 C1      NOp   1
 Largest Abelian subgroup         C1      NOp   1
 Largest concise Abelian subgroup C1      NOp   1
                         Standard orientation:                         
 ---------------------------------------------------------------------
 Center     Atomic      Atomic             Coordinates (Angstroms)
 Number     Number       Type             X           Y           Z
 ---------------------------------------------------------------------
      1         16           0       -0.137012   -0.472021    0.010346
      2          8           0        1.308428    0.278158   -0.034673
      3          8           0       -1.188670    0.542793   -0.012774
      4          1           0        1.234116    0.984717    0.214038
 ---------------------------------------------------------------------
 Rotational constants (GHZ):     35.9278783      9.6812901      7.6414906
 Standard basis: 6-311+G(3df) (5D, 7F)
 There are   128 symmetry adapted basis functions of A   symmetry.
 Integral buffers will be    131072 words long.
 Raffenetti 2 integral format.
 Two-electron integral symmetry is turned on.
   128 basis functions,   193 primitive gaussians,   146 cartesian basis functions
    17 alpha electrons       16 beta electrons
       nuclear repulsion energy       112.9518193851 Hartrees.
 NAtoms=    4 NActive=    4 NUniq=    4 SFac= 1.00D+00 NAtFMM=   60 NAOKFM=F Big=F
 Nuclear repulsion after empirical dispersion term =      112.9515866524 Hartrees.
 One-electron integrals computed using PRISM.
 NBasis=   128 RedAO= T  NBF=   128
 NBsUse=   128 1.00D-06 NBFU=   128
 Harris functional with IExCor= 4639 diagonalized for initial guess.
 ExpMin= 4.05D-02 ExpMax= 9.34D+04 ExpMxC= 3.17D+03 IAcc=2 IRadAn=         4 AccDes= 0.00D+00
 HarFok:  IExCor= 4639 AccDes= 0.00D+00 IRadAn=         4 IDoV= 1
 ScaDFX=  1.000000  1.000000  1.000000  1.000000
 FoFCou: FMM=F IPFlag=           0 FMFlag=      100000 FMFlg1=           0
         NFxFlg=           0 DoJE=T BraDBF=F KetDBF=T FulRan=T
         Omega=  0.000000  0.000000  1.000000  0.000000  0.000000 ICntrl=     500 IOpCl=  0
         NMat0=    1 NMatS0=    1 NMatT0=    0 NMatD0=    1 NMtDS0=    0 NMtDT0=    0
         I1Cent=           4 NGrid=           0.
 Petite list used in FoFCou.
 Initial guess orbital symmetries:
 Alpha Orbitals:
       Occupied  (A) (A) (A) (A) (A) (A) (A) (A) (A) (A) (A) (A)
                 (A) (A) (A) (A) (A)
       Virtual   (A) (A) (A) (A) (A) (A) (A) (A) (A) (A) (A) (A)
                 (A) (A) (A) (A) (A) (A) (A) (A) (A) (A) (A) (A)
                 (A) (A) (A) (A) (A) (A) (A) (A) (A) (A) (A) (A)
                 (A) (A) (A) (A) (A) (A) (A) (A) (A) (A) (A) (A)
                 (A) (A) (A) (A) (A) (A) (A) (A) (A) (A) (A) (A)
                 (A) (A) (A) (A) (A) (A) (A) (A) (A) (A) (A) (A)
                 (A) (A) (A) (A) (A) (A) (A) (A) (A) (A) (A) (A)
                 (A) (A) (A) (A) (A) (A) (A) (A) (A) (A) (A) (A)
                 (A) (A) (A) (A) (A) (A) (A) (A) (A) (A) (A) (A)
                 (A) (A) (A)
 Beta  Orbitals:
       Occupied  (A) (A) (A) (A) (A) (A) (A) (A) (A) (A) (A) (A)
                 (A) (A) (A) (A)
       Virtual   (A) (A) (A) (A) (A) (A) (A) (A) (A) (A) (A) (A)
                 (A) (A) (A) (A) (A) (A) (A) (A) (A) (A) (A) (A)
                 (A) (A) (A) (A) (A) (A) (A) (A) (A) (A) (A) (A)
                 (A) (A) (A) (A) (A) (A) (A) (A) (A) (A) (A) (A)
                 (A) (A) (A) (A) (A) (A) (A) (A) (A) (A) (A) (A)
                 (A) (A) (A) (A) (A) (A) (A) (A) (A) (A) (A) (A)
                 (A) (A) (A) (A) (A) (A) (A) (A) (A) (A) (A) (A)
                 (A) (A) (A) (A) (A) (A) (A) (A) (A) (A) (A) (A)
                 (A) (A) (A) (A) (A) (A) (A) (A) (A) (A) (A) (A)
                 (A) (A) (A) (A)
 The electronic state of the initial guess is 2-A.
 Initial guess <Sx>= 0.0000 <Sy>= 0.0000 <Sz>= 0.5000 <S**2>= 0.7500 S= 0.5000
 Requested convergence on RMS density matrix=1.00D-08 within 128 cycles.
 Requested convergence on MAX density matrix=1.00D-06.
 Requested convergence on             energy=1.00D-06.
 No special actions if energy rises.
 FoFJK:  IHMeth= 1 ICntrl=     0 DoSepK=T KAlg= 1 I1Cent= 0 FoldK=F
 FoFJK:  IHMeth= 1 ICntrl=     0 DoSepK=T KAlg= 1 I1Cent= 0 FoldK=F
 FoFJK:  IHMeth= 1 ICntrl=     0 DoSepK=T KAlg= 1 I1Cent= 0 FoldK=F
 FoFJK:  IHMeth= 1 ICntrl=     0 DoSepK=T KAlg= 1 I1Cent= 0 FoldK=F
 FoFJK:  IHMeth= 1 ICntrl=     0 DoSepK=T KAlg= 1 I1Cent= 0 FoldK=F
 FoFJK:  IHMeth= 1 ICntrl=     0 DoSepK=T KAlg= 1 I1Cent= 0 FoldK=F
 FoFJK:  IHMeth= 1 ICntrl=     0 DoSepK=T KAlg= 1 I1Cent= 0 FoldK=F
 FoFJK:  IHMeth= 1 ICntrl=     0 DoSepK=T KAlg= 1 I1Cent= 0 FoldK=F
 FoFJK:  IHMeth= 1 ICntrl=     0 DoSepK=T KAlg= 1 I1Cent= 0 FoldK=F
 FoFJK:  IHMeth= 1 ICntrl=     0 DoSepK=T KAlg= 1 I1Cent= 0 FoldK=F
 FoFJK:  IHMeth= 1 ICntrl=     0 DoSepK=T KAlg= 1 I1Cent= 0 FoldK=F
 FoFJK:  IHMeth= 1 ICntrl=     0 DoSepK=T KAlg= 1 I1Cent= 0 FoldK=F
 FoFJK:  IHMeth= 1 ICntrl=     0 DoSepK=T KAlg= 1 I1Cent= 0 FoldK=F
 FoFJK:  IHMeth= 1 ICntrl=     0 DoSepK=T KAlg= 1 I1Cent= 0 FoldK=F
 FoFJK:  IHMeth= 1 ICntrl=     0 DoSepK=T KAlg= 1 I1Cent= 0 FoldK=F
 SCF Done:  E(UwB97XD) =  -549.148443212     A.U. after   15 cycles
             Convg  =    0.6988D-08             -V/T =  2.0005
 <Sx>= 0.0000 <Sy>= 0.0000 <Sz>= 0.5000 <S**2>= 0.7555 S= 0.5028
 <L.S>= 0.000000000000E+00
 Annihilation of the first spin contaminant:
 S**2 before annihilation     0.7555,   after     0.7500

 **********************************************************************

            Population analysis using the SCF density.

 **********************************************************************

 Orbital symmetries:
 Alpha Orbitals:
       Occupied  (A) (A) (A) (A) (A) (A) (A) (A) (A) (A) (A) (A)
                 (A) (A) (A) (A) (A)
       Virtual   (A) (A) (A) (A) (A) (A) (A) (A) (A) (A) (A) (A)
                 (A) (A) (A) (A) (A) (A) (A) (A) (A) (A) (A) (A)
                 (A) (A) (A) (A) (A) (A) (A) (A) (A) (A) (A) (A)
                 (A) (A) (A) (A) (A) (A) (A) (A) (A) (A) (A) (A)
                 (A) (A) (A) (A) (A) (A) (A) (A) (A) (A) (A) (A)
                 (A) (A) (A) (A) (A) (A) (A) (A) (A) (A) (A) (A)
                 (A) (A) (A) (A) (A) (A) (A) (A) (A) (A) (A) (A)
                 (A) (A) (A) (A) (A) (A) (A) (A) (A) (A) (A) (A)
                 (A) (A) (A) (A) (A) (A) (A) (A) (A) (A) (A) (A)
                 (A) (A) (A)
 Beta  Orbitals:
       Occupied  (A) (A) (A) (A) (A) (A) (A) (A) (A) (A) (A) (A)
                 (A) (A) (A) (A)
       Virtual   (A) (A) (A) (A) (A) (A) (A) (A) (A) (A) (A) (A)
                 (A) (A) (A) (A) (A) (A) (A) (A) (A) (A) (A) (A)
                 (A) (A) (A) (A) (A) (A) (A) (A) (A) (A) (A) (A)
                 (A) (A) (A) (A) (A) (A) (A) (A) (A) (A) (A) (A)
                 (A) (A) (A) (A) (A) (A) (A) (A) (A) (A) (A) (A)
                 (A) (A) (A) (A) (A) (A) (A) (A) (A) (A) (A) (A)
                 (A) (A) (A) (A) (A) (A) (A) (A) (A) (A) (A) (A)
                 (A) (A) (A) (A) (A) (A) (A) (A) (A) (A) (A) (A)
                 (A) (A) (A) (A) (A) (A) (A) (A) (A) (A) (A) (A)
                 (A) (A) (A) (A)
 The electronic state is 2-A.
 Alpha  occ. eigenvalues --  -89.15362 -19.29735 -19.28802  -8.18113  -6.13054
 Alpha  occ. eigenvalues --   -6.12797  -6.12444  -1.26398  -1.17294  -0.83375
 Alpha  occ. eigenvalues --   -0.65121  -0.57894  -0.57079  -0.51327  -0.47891
 Alpha  occ. eigenvalues --   -0.43002  -0.31471
 Alpha virt. eigenvalues --    0.05593   0.06451   0.07396   0.09312   0.11724
 Alpha virt. eigenvalues --    0.14177   0.20722   0.23523   0.24553   0.25109
 Alpha virt. eigenvalues --    0.26248   0.28370   0.31154   0.32530   0.32771
 Alpha virt. eigenvalues --    0.35438   0.36270   0.37716   0.39111   0.40239
 Alpha virt. eigenvalues --    0.41497   0.50462   0.67416   0.74283   0.78202
 Alpha virt. eigenvalues --    0.81321   0.86250   0.87735   0.93963   0.95425
 Alpha virt. eigenvalues --    0.96393   0.97366   0.99173   1.02898   1.05435
 Alpha virt. eigenvalues --    1.08658   1.10131   1.13242   1.13674   1.16842
 Alpha virt. eigenvalues --    1.21215   1.26798   1.32988   1.37418   1.39949
 Alpha virt. eigenvalues --    1.44844   1.66586   1.67834   1.74189   1.82021
 Alpha virt. eigenvalues --    1.93176   2.01538   2.07511   2.08538   2.12657
 Alpha virt. eigenvalues --    2.21617   2.31923   2.36285   2.54418   3.34069
 Alpha virt. eigenvalues --    3.40701   3.44382   3.46456   3.49238   3.54590
 Alpha virt. eigenvalues --    3.55783   3.65852   3.70035   4.05826   4.52509
 Alpha virt. eigenvalues --    4.56219   4.61199   4.69257   4.90036   4.93316
 Alpha virt. eigenvalues --    5.01340   5.02536   5.03510   5.06253   5.08754
 Alpha virt. eigenvalues --    5.09473   5.10823   5.15311   5.22159   5.23859
 Alpha virt. eigenvalues --    5.41937   5.45685   5.52310   5.59276   5.67690
 Alpha virt. eigenvalues --    5.84402   5.95561   6.49384   6.62096   8.76939
 Alpha virt. eigenvalues --   14.31299  14.35087  14.36657  14.39080  14.41203
 Alpha virt. eigenvalues --   14.45308  14.47523  14.57629  14.70298  14.81347
 Alpha virt. eigenvalues --   17.35760  17.61184  17.89480  50.06960  50.10837
 Alpha virt. eigenvalues --  189.81643
  Beta  occ. eigenvalues --  -89.14978 -19.29509 -19.27896  -8.17770  -6.12826
  Beta  occ. eigenvalues --   -6.12237  -6.11560  -1.25634  -1.15507  -0.81363
  Beta  occ. eigenvalues --   -0.63538  -0.57094  -0.53730  -0.49270  -0.44142
  Beta  occ. eigenvalues --   -0.41760
  Beta virt. eigenvalues --   -0.04283   0.06191   0.06819   0.07864   0.09914
  Beta virt. eigenvalues --    0.12427   0.15168   0.20827   0.23731   0.24899
  Beta virt. eigenvalues --    0.25393   0.26797   0.28678   0.31372   0.32834
  Beta virt. eigenvalues --    0.33848   0.35685   0.36730   0.38400   0.40476
  Beta virt. eigenvalues --    0.40685   0.42256   0.51077   0.67911   0.74556
  Beta virt. eigenvalues --    0.78701   0.81606   0.86640   0.88583   0.94565
  Beta virt. eigenvalues --    0.95854   0.97544   0.98357   0.99819   1.03801
  Beta virt. eigenvalues --    1.06156   1.09437   1.12172   1.13659   1.14126
  Beta virt. eigenvalues --    1.17519   1.22502   1.27366   1.34334   1.38180
  Beta virt. eigenvalues --    1.40342   1.45229   1.69601   1.69873   1.75809
  Beta virt. eigenvalues --    1.83561   1.93992   2.02994   2.08273   2.10869
  Beta virt. eigenvalues --    2.12927   2.22177   2.32433   2.37268   2.54787
  Beta virt. eigenvalues --    3.34829   3.41938   3.46517   3.47848   3.50705
  Beta virt. eigenvalues --    3.55546   3.58097   3.66512   3.71268   4.06067
  Beta virt. eigenvalues --    4.53036   4.56357   4.62082   4.69748   4.90590
  Beta virt. eigenvalues --    4.93825   5.01802   5.03090   5.04585   5.07595
  Beta virt. eigenvalues --    5.11349   5.12447   5.13048   5.16161   5.23107
  Beta virt. eigenvalues --    5.25262   5.42479   5.46232   5.53066   5.59997
  Beta virt. eigenvalues --    5.68897   5.86168   5.96095   6.49684   6.62389
  Beta virt. eigenvalues --    8.77305  14.32520  14.37327  14.40327  14.40712
  Beta virt. eigenvalues --   14.43363  14.48261  14.49307  14.58724  14.72329
  Beta virt. eigenvalues --   14.81761  17.37151  17.61474  17.89801  50.07220
  Beta virt. eigenvalues --   50.11585 189.81947
          Condensed to atoms (all electrons):
              1          2          3          4
     1  S   15.367189  -0.030489   0.138207   0.017973
     2  O   -0.030489   8.437801   0.004675   0.228699
     3  O    0.138207   0.004675   8.227640  -0.001768
     4  H    0.017973   0.228699  -0.001768   0.252775
 Mulliken atomic charges:
              1
     1  S    0.507120
     2  O   -0.640686
     3  O   -0.368754
     4  H    0.502320
 Sum of Mulliken atomic charges =   0.00000
 Mulliken charges with hydrogens summed into heavy atoms:
              1
     1  S    0.507120
     2  O   -0.138366
     3  O   -0.368754
 Sum of Mulliken charges with hydrogens summed into heavy atoms =   0.00000
          Atomic-Atomic Spin Densities.
              1          2          3          4
     1  S    0.934654  -0.100335  -0.196784   0.002196
     2  O   -0.100335   0.141427   0.018314  -0.006033
     3  O   -0.196784   0.018314   0.486257  -0.000910
     4  H    0.002196  -0.006033  -0.000910   0.004768
 Mulliken atomic spin densities:
              1
     1  S    0.639731
     2  O    0.053372
     3  O    0.306876
     4  H    0.000021
 Sum of Mulliken atomic spin densities =   1.00000
 Electronic spatial extent (au):  <R**2>=            175.8423
 Charge=              0.0000 electrons
 Dipole moment (field-independent basis, Debye):
    X=              1.1424    Y=             -0.2217    Z=              0.4570  Tot=              1.2502
 Quadrupole moment (field-independent basis, Debye-Ang):
   XX=            -26.4412   YY=            -21.5437   ZZ=            -23.3388
   XY=              2.9704   XZ=              0.6439   YZ=              0.6683
 Traceless Quadrupole moment (field-independent basis, Debye-Ang):
   XX=             -2.6666   YY=              2.2309   ZZ=              0.4358
   XY=              2.9704   XZ=              0.6439   YZ=              0.6683
 Octapole moment (field-independent basis, Debye-Ang**2):
  XXX=              1.9052  YYY=              4.1525  ZZZ=              0.0681  XYY=              3.7883
  XXY=              0.7784  XXZ=              0.8037  XZZ=              0.3436  YZZ=              1.2687
  YYZ=              0.6828  XYZ=              0.8130
 Hexadecapole moment (field-independent basis, Debye-Ang**3):
 XXXX=           -138.7645 YYYY=            -51.5067 ZZZZ=            -24.3320 XXXY=              5.8764
 XXXZ=              1.2826 YYYX=              4.9351 YYYZ=              0.9284 ZZZX=              0.4430
 ZZZY=              0.5607 XXYY=            -26.9220 XXZZ=            -26.3217 YYZZ=            -13.4387
 XXYZ=              1.1728 YYXZ=              0.8653 ZZXY=              0.5244
 N-N= 1.129515866524D+02 E-N=-2.286549611952D+03  KE= 8.219162769415D+02
                          Isotropic Fermi Contact Couplings
        Atom                 a.u.       MegaHertz       Gauss      10(-4) cm-1
     1  S(33)              0.10249      35.20167      12.56083      11.74201
     2  O(17)              0.01686     -10.22260      -3.64768      -3.40989
     3  O(17)              0.05305     -32.16105     -11.47586     -10.72777
     4  H(1)               0.00023       1.04945       0.37447       0.35006
 --------------------------------------------------------
       Center         ----  Spin Dipole Couplings  ----
                      3XX-RR        3YY-RR        3ZZ-RR
 --------------------------------------------------------
     1   Atom       -1.504512     -1.620954      3.125466
     2   Atom       -0.224115     -0.195435      0.419551
     3   Atom       -0.789127     -0.794526      1.583652
     4   Atom       -0.017481      0.027666     -0.010184
 --------------------------------------------------------
                        XY            XZ            YZ
 --------------------------------------------------------
     1   Atom       -0.003728     -0.055671      0.121127
     2   Atom        0.006959      0.006290     -0.096135
     3   Atom        0.005641      0.089296      0.031795
     4   Atom        0.003435      0.001624      0.003628
 --------------------------------------------------------


 ---------------------------------------------------------------------------------
              Anisotropic Spin Dipole Couplings in Principal Axis System
 ---------------------------------------------------------------------------------

       Atom             a.u.   MegaHertz   Gauss  10(-4) cm-1        Axes

              Baa    -1.6241   -66.586   -23.760   -22.211  0.0194  0.9995 -0.0253
     1 S(33)  Bbb    -1.5051   -61.709   -22.019   -20.584  0.9997 -0.0191  0.0125
              Bcc     3.1292   128.295    45.779    42.795 -0.0120  0.0255  0.9996
 
              Baa    -0.2276    16.473     5.878     5.495  0.9131 -0.4019 -0.0686
     2 O(17)  Bbb    -0.2066    14.951     5.335     4.987  0.4076  0.9032  0.1346
              Bcc     0.4343   -31.423   -11.213   -10.482  0.0078 -0.1508  0.9885
 
              Baa    -0.7983    57.767    20.613    19.269 -0.6049  0.7962  0.0120
     3 O(17)  Bbb    -0.7891    57.099    20.374    19.046  0.7954  0.6049 -0.0380
              Bcc     1.5874  -114.866   -40.987   -38.315  0.0376  0.0134  0.9992
 
              Baa    -0.0180    -9.595    -3.424    -3.200  0.9824 -0.0599 -0.1768
     4 H(1)   Bbb    -0.0103    -5.499    -1.962    -1.834  0.1696 -0.1089  0.9795
              Bcc     0.0283    15.094     5.386     5.035  0.0779  0.9922  0.0969
 

 ---------------------------------------------------------------------------------

 1\1\ CPUSERV-QCEXNOD03\SP\UwB97XD\6-311+G(3df)\H1O2S1(2)\ROOT\21-Aug-2
 025\0\\#sp wB97XD/6-311+G(3df)\\Optimizacion del hoso\\0,2\S,0,-0.1388
 43,-0.474008,0.016308\O,0,1.310132,0.268471,-0.04104\O,0,-1.185636,0.5
 45438,-0.020037\H,0,1.239521,0.978845,0.197681\\Version=EM64L-G09RevC.
 01\State=2-A\HF=-549.1484432\S2=0.75553\S2-1=0.\S2A=0.750021\RMSD=6.98
 8e-09\Dipole=0.4492292,-0.0868306,0.180501\Quadrupole=-1.9600764,1.650
 986,0.3090904,2.2331008,0.4522179,0.4729479\PG=C01 [X(H1O2S1)]\\@


0EVERYBODY IS IGNORANT, ONLY ON DIFFERENT SUBJECTS.
0          WILL ROGERS
 Job cpu time:  0 days  0 hours  3 minutes 16.3 seconds.
 File lengths (MBytes):  RWF=     21 Int=      0 D2E=      0 Chk=      2 Scr=      1
 Normal termination of Gaussian 09 at Thu Aug 21 00:36:09 2025.
