 Entering Gaussian System, Link 0=g09
 Initial command:
 /soft/g09.c01/g09/l1.exe /scr/macias/389604.qcexmaster_vib5_-0.15/Gau-25791.inp -scrdir=/scr/macias/389604.qcexmaster_vib5_-0.15/
 Entering Link 1 = /soft/g09.c01/g09/l1.exe PID=     25797.
  
 Copyright (c) 1988,1990,1992,1993,1995,1998,2003,2009,2011,
            Gaussian, Inc.  All Rights Reserved.
  
 This is part of the Gaussian(R) 09 program.  It is based on
 the Gaussian(R) 03 system (copyright 2003, Gaussian, Inc.),
 the Gaussian(R) 98 system (copyright 1998, Gaussian, Inc.),
 the Gaussian(R) 94 system (copyright 1995, Gaussian, Inc.),
 the Gaussian 92(TM) system (copyright 1992, Gaussian, Inc.),
 the Gaussian 90(TM) system (copyright 1990, Gaussian, Inc.),
 the Gaussian 88(TM) system (copyright 1988, Gaussian, Inc.),
 the Gaussian 86(TM) system (copyright 1986, Carnegie Mellon
 University), and the Gaussian 82(TM) system (copyright 1983,
 Carnegie Mellon University). Gaussian is a federally registered
 trademark of Gaussian, Inc.
  
 This software contains proprietary and confidential information,
 including trade secrets, belonging to Gaussian, Inc.
  
 This software is provided under written license and may be
 used, copied, transmitted, or stored only in accord with that
 written license.
  
 The following legend is applicable only to US Government
 contracts under FAR:
  
                    RESTRICTED RIGHTS LEGEND
  
 Use, reproduction and disclosure by the US Government is
 subject to restrictions as set forth in subparagraphs (a)
 and (c) of the Commercial Computer Software - Restricted
 Rights clause in FAR 52.227-19.
  
 Gaussian, Inc.
 340 Quinnipiac St., Bldg. 40, Wallingford CT 06492
  
  
 ---------------------------------------------------------------
 Warning -- This program may not be used in any manner that
 competes with the business of Gaussian, Inc. or will provide
 assistance to any competitor of Gaussian, Inc.  The licensee
 of this program is prohibited from giving any competitor of
 Gaussian, Inc. access to this program.  By using this program,
 the user acknowledges that Gaussian, Inc. is engaged in the
 business of creating and licensing software in the field of
 computational chemistry and represents and warrants to the
 licensee that it is not a competitor of Gaussian, Inc. and that
 it will not use this program in any manner prohibited above.
 ---------------------------------------------------------------
  

 Cite this work as:
 Gaussian 09, Revision C.01,
 M. J. Frisch, G. W. Trucks, H. B. Schlegel, G. E. Scuseria, 
 M. A. Robb, J. R. Cheeseman, G. Scalmani, V. Barone, B. Mennucci, 
 G. A. Petersson, H. Nakatsuji, M. Caricato, X. Li, H. P. Hratchian, 
 A. F. Izmaylov, J. Bloino, G. Zheng, J. L. Sonnenberg, M. Hada, 
 M. Ehara, K. Toyota, R. Fukuda, J. Hasegawa, M. Ishida, T. Nakajima, 
 Y. Honda, O. Kitao, H. Nakai, T. Vreven, J. A. Montgomery, Jr., 
 J. E. Peralta, F. Ogliaro, M. Bearpark, J. J. Heyd, E. Brothers, 
 K. N. Kudin, V. N. Staroverov, T. Keith, R. Kobayashi, J. Normand, 
 K. Raghavachari, A. Rendell, J. C. Burant, S. S. Iyengar, J. Tomasi, 
 M. Cossi, N. Rega, J. M. Millam, M. Klene, J. E. Knox, J. B. Cross, 
 V. Bakken, C. Adamo, J. Jaramillo, R. Gomperts, R. E. Stratmann, 
 O. Yazyev, A. J. Austin, R. Cammi, C. Pomelli, J. W. Ochterski, 
 R. L. Martin, K. Morokuma, V. G. Zakrzewski, G. A. Voth, 
 P. Salvador, J. J. Dannenberg, S. Dapprich, A. D. Daniels, 
 O. Farkas, J. B. Foresman, J. V. Ortiz, J. Cioslowski, 
 and D. J. Fox, Gaussian, Inc., Wallingford CT, 2010.
 
  
 -----  Compilado por  -----------------------------------------
  
  Servicio de Calculo | Servicio de Informatica U. de Valencia
     calculo@uv.es    |  E-46100 Burjassot (Valencia) SPAIN
  
 ---------------------------------------------------------------
  
 ******************************************
 Gaussian 09:  EM64L-G09RevC.01 23-Sep-2011
                20-Aug-2025 
 ******************************************
 %chk=opt_freq.chk
 %nproc=6
 Will use up to    6 processors via shared memory.
 %mem=20GB
 Default route:  CacheSize=131072
 -----------------------
 #sp wB97XD/6-311+G(3df)
 -----------------------
 1/4=131072,38=1/1;
 2/4=131072,12=2,17=6,18=5,40=1/2;
 3/4=131072,5=4,6=6,7=16,11=2,16=1,25=1,30=1,74=-58/1,2,3;
 4/4=131072/1;
 5/4=131072,5=2,38=5/2;
 6/4=131072,7=2,8=2,9=2,10=2,28=1/1;
 99/4=131072,5=1,9=1/99;
 ---------------------
 Optimizacion del hoso
 ---------------------
 Charge =  0 Multiplicity = 2
 Symbolic Z-Matrix:
 S                    -0.10884  -0.50851   0.01631 
 O                     1.30263   0.26247  -0.04204 
 O                    -1.24714   0.60844  -0.02154 
 H                     1.33502   1.18834   0.24318 
 
                          Input orientation:                          
 ---------------------------------------------------------------------
 Center     Atomic      Atomic             Coordinates (Angstroms)
 Number     Number       Type             X           Y           Z
 ---------------------------------------------------------------------
      1         16           0       -0.108843   -0.508508    0.016308
      2          8           0        1.302632    0.262471   -0.042040
      3          8           0       -1.247136    0.608438   -0.021537
      4          1           0        1.335021    1.188345    0.243181
 ---------------------------------------------------------------------
                    Distance matrix (angstroms):
                    1          2          3          4
     1  S    0.000000
     2  O    1.609371   0.000000
     3  O    1.595215   2.573214   0.000000
     4  H    2.239537   0.969352   2.659681   0.000000
 Stoichiometry    HO2S(2)
 Framework group  C1[X(HO2S)]
 Deg. of freedom     6
 Full point group                 C1      NOp   1
 Largest Abelian subgroup         C1      NOp   1
 Largest concise Abelian subgroup C1      NOp   1
                         Standard orientation:                         
 ---------------------------------------------------------------------
 Center     Atomic      Atomic             Coordinates (Angstroms)
 Number     Number       Type             X           Y           Z
 ---------------------------------------------------------------------
      1         16           0       -0.086673   -0.513632    0.014755
      2          8           0        1.288125    0.320956   -0.044143
      3          8           0       -1.274673    0.550523   -0.015938
      4          1           0        1.279143    1.246272    0.244566
 ---------------------------------------------------------------------
 Rotational constants (GHZ):     30.6209086      9.2635165      7.1307717
 Standard basis: 6-311+G(3df) (5D, 7F)
 There are   128 symmetry adapted basis functions of A   symmetry.
 Integral buffers will be    131072 words long.
 Raffenetti 2 integral format.
 Two-electron integral symmetry is turned on.
   128 basis functions,   193 primitive gaussians,   146 cartesian basis functions
    17 alpha electrons       16 beta electrons
       nuclear repulsion energy       107.4499144442 Hartrees.
 NAtoms=    4 NActive=    4 NUniq=    4 SFac= 1.00D+00 NAtFMM=   60 NAOKFM=F Big=F
 Nuclear repulsion after empirical dispersion term =      107.4496273008 Hartrees.
 One-electron integrals computed using PRISM.
 NBasis=   128 RedAO= T  NBF=   128
 NBsUse=   128 1.00D-06 NBFU=   128
 Harris functional with IExCor= 4639 diagonalized for initial guess.
 ExpMin= 4.05D-02 ExpMax= 9.34D+04 ExpMxC= 3.17D+03 IAcc=2 IRadAn=         4 AccDes= 0.00D+00
 HarFok:  IExCor= 4639 AccDes= 0.00D+00 IRadAn=         4 IDoV= 1
 ScaDFX=  1.000000  1.000000  1.000000  1.000000
 FoFCou: FMM=F IPFlag=           0 FMFlag=      100000 FMFlg1=           0
         NFxFlg=           0 DoJE=T BraDBF=F KetDBF=T FulRan=T
         Omega=  0.000000  0.000000  1.000000  0.000000  0.000000 ICntrl=     500 IOpCl=  0
         NMat0=    1 NMatS0=    1 NMatT0=    0 NMatD0=    1 NMtDS0=    0 NMtDT0=    0
         I1Cent=           4 NGrid=           0.
 Petite list used in FoFCou.
 Initial guess orbital symmetries:
 Alpha Orbitals:
       Occupied  (A) (A) (A) (A) (A) (A) (A) (A) (A) (A) (A) (A)
                 (A) (A) (A) (A) (A)
       Virtual   (A) (A) (A) (A) (A) (A) (A) (A) (A) (A) (A) (A)
                 (A) (A) (A) (A) (A) (A) (A) (A) (A) (A) (A) (A)
                 (A) (A) (A) (A) (A) (A) (A) (A) (A) (A) (A) (A)
                 (A) (A) (A) (A) (A) (A) (A) (A) (A) (A) (A) (A)
                 (A) (A) (A) (A) (A) (A) (A) (A) (A) (A) (A) (A)
                 (A) (A) (A) (A) (A) (A) (A) (A) (A) (A) (A) (A)
                 (A) (A) (A) (A) (A) (A) (A) (A) (A) (A) (A) (A)
                 (A) (A) (A) (A) (A) (A) (A) (A) (A) (A) (A) (A)
                 (A) (A) (A) (A) (A) (A) (A) (A) (A) (A) (A) (A)
                 (A) (A) (A)
 Beta  Orbitals:
       Occupied  (A) (A) (A) (A) (A) (A) (A) (A) (A) (A) (A) (A)
                 (A) (A) (A) (A)
       Virtual   (A) (A) (A) (A) (A) (A) (A) (A) (A) (A) (A) (A)
                 (A) (A) (A) (A) (A) (A) (A) (A) (A) (A) (A) (A)
                 (A) (A) (A) (A) (A) (A) (A) (A) (A) (A) (A) (A)
                 (A) (A) (A) (A) (A) (A) (A) (A) (A) (A) (A) (A)
                 (A) (A) (A) (A) (A) (A) (A) (A) (A) (A) (A) (A)
                 (A) (A) (A) (A) (A) (A) (A) (A) (A) (A) (A) (A)
                 (A) (A) (A) (A) (A) (A) (A) (A) (A) (A) (A) (A)
                 (A) (A) (A) (A) (A) (A) (A) (A) (A) (A) (A) (A)
                 (A) (A) (A) (A) (A) (A) (A) (A) (A) (A) (A) (A)
                 (A) (A) (A) (A)
 The electronic state of the initial guess is 2-A.
 Initial guess <Sx>= 0.0000 <Sy>= 0.0000 <Sz>= 0.5000 <S**2>= 0.7500 S= 0.5000
 Requested convergence on RMS density matrix=1.00D-08 within 128 cycles.
 Requested convergence on MAX density matrix=1.00D-06.
 Requested convergence on             energy=1.00D-06.
 No special actions if energy rises.
 FoFJK:  IHMeth= 1 ICntrl=     0 DoSepK=T KAlg= 1 I1Cent= 0 FoldK=F
 FoFJK:  IHMeth= 1 ICntrl=     0 DoSepK=T KAlg= 1 I1Cent= 0 FoldK=F
 FoFJK:  IHMeth= 1 ICntrl=     0 DoSepK=T KAlg= 1 I1Cent= 0 FoldK=F
 FoFJK:  IHMeth= 1 ICntrl=     0 DoSepK=T KAlg= 1 I1Cent= 0 FoldK=F
 FoFJK:  IHMeth= 1 ICntrl=     0 DoSepK=T KAlg= 1 I1Cent= 0 FoldK=F
 FoFJK:  IHMeth= 1 ICntrl=     0 DoSepK=T KAlg= 1 I1Cent= 0 FoldK=F
 FoFJK:  IHMeth= 1 ICntrl=     0 DoSepK=T KAlg= 1 I1Cent= 0 FoldK=F
 FoFJK:  IHMeth= 1 ICntrl=     0 DoSepK=T KAlg= 1 I1Cent= 0 FoldK=F
 FoFJK:  IHMeth= 1 ICntrl=     0 DoSepK=T KAlg= 1 I1Cent= 0 FoldK=F
 FoFJK:  IHMeth= 1 ICntrl=     0 DoSepK=T KAlg= 1 I1Cent= 0 FoldK=F
 FoFJK:  IHMeth= 1 ICntrl=     0 DoSepK=T KAlg= 1 I1Cent= 0 FoldK=F
 FoFJK:  IHMeth= 1 ICntrl=     0 DoSepK=T KAlg= 1 I1Cent= 0 FoldK=F
 FoFJK:  IHMeth= 1 ICntrl=     0 DoSepK=T KAlg= 1 I1Cent= 0 FoldK=F
 FoFJK:  IHMeth= 1 ICntrl=     0 DoSepK=T KAlg= 1 I1Cent= 0 FoldK=F
 FoFJK:  IHMeth= 1 ICntrl=     0 DoSepK=T KAlg= 1 I1Cent= 0 FoldK=F
 FoFJK:  IHMeth= 1 ICntrl=     0 DoSepK=T KAlg= 1 I1Cent= 0 FoldK=F
 SCF Done:  E(UwB97XD) =  -549.204971636     A.U. after   16 cycles
             Convg  =    0.8564D-08             -V/T =  2.0022
 <Sx>= 0.0000 <Sy>= 0.0000 <Sz>= 0.5000 <S**2>= 0.7565 S= 0.5032
 <L.S>= 0.000000000000E+00
 Annihilation of the first spin contaminant:
 S**2 before annihilation     0.7565,   after     0.7500

 **********************************************************************

            Population analysis using the SCF density.

 **********************************************************************

 Orbital symmetries:
 Alpha Orbitals:
       Occupied  (A) (A) (A) (A) (A) (A) (A) (A) (A) (A) (A) (A)
                 (A) (A) (A) (A) (A)
       Virtual   (A) (A) (A) (A) (A) (A) (A) (A) (A) (A) (A) (A)
                 (A) (A) (A) (A) (A) (A) (A) (A) (A) (A) (A) (A)
                 (A) (A) (A) (A) (A) (A) (A) (A) (A) (A) (A) (A)
                 (A) (A) (A) (A) (A) (A) (A) (A) (A) (A) (A) (A)
                 (A) (A) (A) (A) (A) (A) (A) (A) (A) (A) (A) (A)
                 (A) (A) (A) (A) (A) (A) (A) (A) (A) (A) (A) (A)
                 (A) (A) (A) (A) (A) (A) (A) (A) (A) (A) (A) (A)
                 (A) (A) (A) (A) (A) (A) (A) (A) (A) (A) (A) (A)
                 (A) (A) (A) (A) (A) (A) (A) (A) (A) (A) (A) (A)
                 (A) (A) (A)
 Beta  Orbitals:
       Occupied  (A) (A) (A) (A) (A) (A) (A) (A) (A) (A) (A) (A)
                 (A) (A) (A) (A)
       Virtual   (A) (A) (A) (A) (A) (A) (A) (A) (A) (A) (A) (A)
                 (A) (A) (A) (A) (A) (A) (A) (A) (A) (A) (A) (A)
                 (A) (A) (A) (A) (A) (A) (A) (A) (A) (A) (A) (A)
                 (A) (A) (A) (A) (A) (A) (A) (A) (A) (A) (A) (A)
                 (A) (A) (A) (A) (A) (A) (A) (A) (A) (A) (A) (A)
                 (A) (A) (A) (A) (A) (A) (A) (A) (A) (A) (A) (A)
                 (A) (A) (A) (A) (A) (A) (A) (A) (A) (A) (A) (A)
                 (A) (A) (A) (A) (A) (A) (A) (A) (A) (A) (A) (A)
                 (A) (A) (A) (A) (A) (A) (A) (A) (A) (A) (A) (A)
                 (A) (A) (A) (A)
 The electronic state is 2-A.
 Alpha  occ. eigenvalues --  -89.15895 -19.32490 -19.28568  -8.18438  -6.13411
 Alpha  occ. eigenvalues --   -6.13073  -6.12809  -1.21236  -1.10643  -0.82187
 Alpha  occ. eigenvalues --   -0.63987  -0.56065  -0.55404  -0.48616  -0.46175
 Alpha  occ. eigenvalues --   -0.41194  -0.32476
 Alpha virt. eigenvalues --    0.03694   0.06023   0.07044   0.09438   0.11425
 Alpha virt. eigenvalues --    0.12206   0.18047   0.22672   0.24362   0.24856
 Alpha virt. eigenvalues --    0.26299   0.28442   0.29586   0.32647   0.33145
 Alpha virt. eigenvalues --    0.35438   0.35985   0.37990   0.38633   0.39346
 Alpha virt. eigenvalues --    0.40424   0.47682   0.55849   0.64747   0.78068
 Alpha virt. eigenvalues --    0.81053   0.86848   0.88351   0.93647   0.95542
 Alpha virt. eigenvalues --    0.97236   0.98238   0.99787   1.01325   1.05118
 Alpha virt. eigenvalues --    1.09051   1.09512   1.12185   1.13047   1.14824
 Alpha virt. eigenvalues --    1.21992   1.24637   1.27366   1.36228   1.39688
 Alpha virt. eigenvalues --    1.42987   1.66955   1.67874   1.70941   1.79800
 Alpha virt. eigenvalues --    1.92283   2.02587   2.06037   2.06666   2.15011
 Alpha virt. eigenvalues --    2.20044   2.26948   2.30939   2.40326   3.36902
 Alpha virt. eigenvalues --    3.41373   3.45603   3.47077   3.49750   3.53474
 Alpha virt. eigenvalues --    3.54515   3.63607   3.64838   3.69760   4.52122
 Alpha virt. eigenvalues --    4.52666   4.56858   4.71357   4.79324   4.98328
 Alpha virt. eigenvalues --    5.03063   5.03899   5.04475   5.06561   5.06781
 Alpha virt. eigenvalues --    5.11312   5.11828   5.14040   5.18873   5.20302
 Alpha virt. eigenvalues --    5.40670   5.46113   5.53018   5.53145   5.55076
 Alpha virt. eigenvalues --    5.65500   5.68118   5.89077   6.54262   8.55716
 Alpha virt. eigenvalues --   14.31743  14.34732  14.37169  14.38317  14.40327
 Alpha virt. eigenvalues --   14.42878  14.47147  14.48882  14.59409  14.64440
 Alpha virt. eigenvalues --   17.34609  17.57901  17.69754  50.01860  50.06907
 Alpha virt. eigenvalues --  189.59746
  Beta  occ. eigenvalues --  -89.15530 -19.32259 -19.27532  -8.18113  -6.13199
  Beta  occ. eigenvalues --   -6.12619  -6.11889  -1.20438  -1.08387  -0.80066
  Beta  occ. eigenvalues --   -0.62578  -0.55324  -0.52535  -0.46748  -0.40839
  Beta  occ. eigenvalues --   -0.39926
  Beta virt. eigenvalues --   -0.05485   0.04245   0.06563   0.07396   0.09860
  Beta virt. eigenvalues --    0.12341   0.12613   0.18261   0.22910   0.24642
  Beta virt. eigenvalues --    0.25064   0.27026   0.28764   0.29933   0.32759
  Beta virt. eigenvalues --    0.34170   0.35637   0.36759   0.38717   0.39719
  Beta virt. eigenvalues --    0.40031   0.40656   0.48386   0.56032   0.65158
  Beta virt. eigenvalues --    0.78563   0.81440   0.87376   0.89068   0.94197
  Beta virt. eigenvalues --    0.96102   0.98089   0.99146   1.01086   1.01951
  Beta virt. eigenvalues --    1.05856   1.09724   1.11611   1.12474   1.13707
  Beta virt. eigenvalues --    1.15373   1.23187   1.25404   1.28831   1.36611
  Beta virt. eigenvalues --    1.40600   1.43316   1.69376   1.70035   1.72428
  Beta virt. eigenvalues --    1.81166   1.93128   2.03874   2.07293   2.08250
  Beta virt. eigenvalues --    2.15525   2.20612   2.27434   2.31544   2.40713
  Beta virt. eigenvalues --    3.37725   3.42767   3.47217   3.49389   3.51578
  Beta virt. eigenvalues --    3.55061   3.56617   3.64540   3.65848   3.70372
  Beta virt. eigenvalues --    4.52249   4.53192   4.57602   4.71966   4.79770
  Beta virt. eigenvalues --    4.98860   5.03931   5.04710   5.05093   5.07530
  Beta virt. eigenvalues --    5.11428   5.13867   5.14267   5.15087   5.20452
  Beta virt. eigenvalues --    5.21263   5.41301   5.46547   5.54034   5.54262
  Beta virt. eigenvalues --    5.56206   5.65885   5.69755   5.89584   6.54734
  Beta virt. eigenvalues --    8.56065  14.32945  14.36804  14.39630  14.41694
  Beta virt. eigenvalues --   14.43497  14.47210  14.48148  14.49890  14.59979
  Beta virt. eigenvalues --   14.66897  17.35923  17.58156  17.70049  50.02111
  Beta virt. eigenvalues --   50.07835 189.60035
          Condensed to atoms (all electrons):
              1          2          3          4
     1  S   15.274912  -0.000504   0.207451   0.007258
     2  O   -0.000504   8.379932   0.000357   0.208259
     3  O    0.207451   0.000357   8.215368   0.000579
     4  H    0.007258   0.208259   0.000579   0.282992
 Mulliken atomic charges:
              1
     1  S    0.510884
     2  O   -0.588043
     3  O   -0.423754
     4  H    0.500913
 Sum of Mulliken atomic charges =   0.00000
 Mulliken charges with hydrogens summed into heavy atoms:
              1
     1  S    0.510884
     2  O   -0.087130
     3  O   -0.423754
 Sum of Mulliken charges with hydrogens summed into heavy atoms =   0.00000
          Atomic-Atomic Spin Densities.
              1          2          3          4
     1  S    0.813632  -0.092407  -0.156383  -0.000332
     2  O   -0.092407   0.139508   0.015982  -0.003467
     3  O   -0.156383   0.015982   0.516600  -0.000546
     4  H   -0.000332  -0.003467  -0.000546   0.004563
 Mulliken atomic spin densities:
              1
     1  S    0.564510
     2  O    0.059617
     3  O    0.375654
     4  H    0.000219
 Sum of Mulliken atomic spin densities =   1.00000
 Electronic spatial extent (au):  <R**2>=            185.5614
 Charge=              0.0000 electrons
 Dipole moment (field-independent basis, Debye):
    X=              1.9473    Y=             -0.0299    Z=              0.5300  Tot=              2.0184
 Quadrupole moment (field-independent basis, Debye-Ang):
   XX=            -26.8154   YY=            -20.5789   ZZ=            -23.8359
   XY=              3.6585   XZ=              0.7477   YZ=              0.8335
 Traceless Quadrupole moment (field-independent basis, Debye-Ang):
   XX=             -3.0720   YY=              3.1645   ZZ=             -0.0925
   XY=              3.6585   XZ=              0.7477   YZ=              0.8335
 Octapole moment (field-independent basis, Debye-Ang**2):
  XXX=              4.1466  YYY=              5.5971  ZZZ=              0.0093  XYY=              5.3555
  XXY=              1.7994  XXZ=              0.9214  XZZ=              0.5731  YZZ=              1.0981
  YYZ=              1.0608  XYZ=              1.0667
 Hexadecapole moment (field-independent basis, Debye-Ang**3):
 XXXX=           -147.4686 YYYY=            -54.3531 ZZZZ=            -25.2950 XXXY=              6.9951
 XXXZ=              1.4598 YYYX=              8.2348 YYYZ=              1.5732 ZZZX=              0.4053
 ZZZY=              0.5524 XXYY=            -26.8918 XXZZ=            -27.9845 YYZZ=            -14.5808
 XXYZ=              1.4823 YYXZ=              1.3996 ZZXY=              0.5873
 N-N= 1.074496273008D+02 E-N=-2.269650045398D+03  KE= 8.205189701737D+02
                          Isotropic Fermi Contact Couplings
        Atom                 a.u.       MegaHertz       Gauss      10(-4) cm-1
     1  S(33)              0.09752      33.49567      11.95209      11.17295
     2  O(17)              0.02013     -12.20438      -4.35483      -4.07094
     3  O(17)              0.05451     -33.04524     -11.79136     -11.02271
     4  H(1)               0.00034       1.50912       0.53849       0.50339
 --------------------------------------------------------
       Center         ----  Spin Dipole Couplings  ----
                      3XX-RR        3YY-RR        3ZZ-RR
 --------------------------------------------------------
     1   Atom       -1.446688     -1.543859      2.990547
     2   Atom       -0.235770     -0.193018      0.428788
     3   Atom       -0.885722     -0.885288      1.771010
     4   Atom       -0.009394      0.019232     -0.009838
 --------------------------------------------------------
                        XY            XZ            YZ
 --------------------------------------------------------
     1   Atom        0.017958     -0.086703      0.098303
     2   Atom        0.007449      0.015903     -0.105920
     3   Atom        0.008045      0.092740      0.008694
     4   Atom        0.006609      0.001545      0.004291
 --------------------------------------------------------


 ---------------------------------------------------------------------------------
              Anisotropic Spin Dipole Couplings in Principal Axis System
 ---------------------------------------------------------------------------------

       Atom             a.u.   MegaHertz   Gauss  10(-4) cm-1        Axes

              Baa    -1.5499   -63.543   -22.674   -21.196 -0.1917  0.9811 -0.0249
     1 S(33)  Bbb    -1.4445   -59.223   -21.132   -19.755  0.9813  0.1921  0.0149
              Bcc     2.9944   122.766    43.806    40.950 -0.0194  0.0216  0.9996
 
              Baa    -0.2395    17.330     6.184     5.781  0.9455 -0.3175 -0.0728
     2 O(17)  Bbb    -0.2071    14.989     5.348     5.000  0.3250  0.9341  0.1475
              Bcc     0.4466   -32.319   -11.532   -10.780  0.0212 -0.1631  0.9864
 
              Baa    -0.8951    64.768    23.111    21.604  0.7834 -0.6210 -0.0252
     3 O(17)  Bbb    -0.8792    63.618    22.700    21.221  0.6205  0.7838 -0.0243
              Bcc     1.7743  -128.385   -45.811   -42.825  0.0349  0.0034  0.9994
 
              Baa    -0.0113    -6.017    -2.147    -2.007  0.8023 -0.0908 -0.5900
     4 H(1)   Bbb    -0.0101    -5.369    -1.916    -1.791  0.5569 -0.2420  0.7946
              Bcc     0.0213    11.386     4.063     3.798  0.2149  0.9660  0.1436
 

 ---------------------------------------------------------------------------------

 1\1\ CPUSERV-QCEXNOD15\SP\UwB97XD\6-311+G(3df)\H1O2S1(2)\VPEREZ\20-Aug
 -2025\0\\#sp wB97XD/6-311+G(3df)\\Optimizacion del hoso\\0,2\S,0,-0.10
 8843,-0.508508,0.016308\O,0,1.302632,0.262471,-0.04204\O,0,-1.247136,0
 .608438,-0.021537\H,0,1.335021,1.188345,0.243181\\Version=EM64L-G09Rev
 C.01\State=2-A\HF=-549.2049716\S2=0.756511\S2-1=0.\S2A=0.750027\RMSD=8
 .564e-09\Dipole=0.7642768,-0.0457747,0.2106127\Quadrupole=-2.0301001,2
 .1005616,-0.0704616,2.9201077,0.567359,0.5926806\PG=C01 [X(H1O2S1)]\\@


 I WANT TO KNOW HOW GOD CREATED THE WORLD.  I AM NOT INTERESTED IN
 THIS OR THAT PHENOMENON, IN THE SPECTRUM OF THIS OR THAT ELEMENT.
 I WANT TO KNOW HIS THOUGHTS, THE REST ARE DETAILS.
     -- ALBERT EINSTEIN
 Job cpu time:  0 days  0 hours  5 minutes 43.2 seconds.
 File lengths (MBytes):  RWF=     21 Int=      0 D2E=      0 Chk=      2 Scr=      1
 Normal termination of Gaussian 09 at Wed Aug 20 23:00:05 2025.
