 Entering Gaussian System, Link 0=g09
 Initial command:
 /soft/g09.c01/g09/l1.exe /scr/macias/389611.qcexmaster_vib5_0.20/Gau-9938.inp -scrdir=/scr/macias/389611.qcexmaster_vib5_0.20/
 Entering Link 1 = /soft/g09.c01/g09/l1.exe PID=      9939.
  
 Copyright (c) 1988,1990,1992,1993,1995,1998,2003,2009,2011,
            Gaussian, Inc.  All Rights Reserved.
  
 This is part of the Gaussian(R) 09 program.  It is based on
 the Gaussian(R) 03 system (copyright 2003, Gaussian, Inc.),
 the Gaussian(R) 98 system (copyright 1998, Gaussian, Inc.),
 the Gaussian(R) 94 system (copyright 1995, Gaussian, Inc.),
 the Gaussian 92(TM) system (copyright 1992, Gaussian, Inc.),
 the Gaussian 90(TM) system (copyright 1990, Gaussian, Inc.),
 the Gaussian 88(TM) system (copyright 1988, Gaussian, Inc.),
 the Gaussian 86(TM) system (copyright 1986, Carnegie Mellon
 University), and the Gaussian 82(TM) system (copyright 1983,
 Carnegie Mellon University). Gaussian is a federally registered
 trademark of Gaussian, Inc.
  
 This software contains proprietary and confidential information,
 including trade secrets, belonging to Gaussian, Inc.
  
 This software is provided under written license and may be
 used, copied, transmitted, or stored only in accord with that
 written license.
  
 The following legend is applicable only to US Government
 contracts under FAR:
  
                    RESTRICTED RIGHTS LEGEND
  
 Use, reproduction and disclosure by the US Government is
 subject to restrictions as set forth in subparagraphs (a)
 and (c) of the Commercial Computer Software - Restricted
 Rights clause in FAR 52.227-19.
  
 Gaussian, Inc.
 340 Quinnipiac St., Bldg. 40, Wallingford CT 06492
  
  
 ---------------------------------------------------------------
 Warning -- This program may not be used in any manner that
 competes with the business of Gaussian, Inc. or will provide
 assistance to any competitor of Gaussian, Inc.  The licensee
 of this program is prohibited from giving any competitor of
 Gaussian, Inc. access to this program.  By using this program,
 the user acknowledges that Gaussian, Inc. is engaged in the
 business of creating and licensing software in the field of
 computational chemistry and represents and warrants to the
 licensee that it is not a competitor of Gaussian, Inc. and that
 it will not use this program in any manner prohibited above.
 ---------------------------------------------------------------
  

 Cite this work as:
 Gaussian 09, Revision C.01,
 M. J. Frisch, G. W. Trucks, H. B. Schlegel, G. E. Scuseria, 
 M. A. Robb, J. R. Cheeseman, G. Scalmani, V. Barone, B. Mennucci, 
 G. A. Petersson, H. Nakatsuji, M. Caricato, X. Li, H. P. Hratchian, 
 A. F. Izmaylov, J. Bloino, G. Zheng, J. L. Sonnenberg, M. Hada, 
 M. Ehara, K. Toyota, R. Fukuda, J. Hasegawa, M. Ishida, T. Nakajima, 
 Y. Honda, O. Kitao, H. Nakai, T. Vreven, J. A. Montgomery, Jr., 
 J. E. Peralta, F. Ogliaro, M. Bearpark, J. J. Heyd, E. Brothers, 
 K. N. Kudin, V. N. Staroverov, T. Keith, R. Kobayashi, J. Normand, 
 K. Raghavachari, A. Rendell, J. C. Burant, S. S. Iyengar, J. Tomasi, 
 M. Cossi, N. Rega, J. M. Millam, M. Klene, J. E. Knox, J. B. Cross, 
 V. Bakken, C. Adamo, J. Jaramillo, R. Gomperts, R. E. Stratmann, 
 O. Yazyev, A. J. Austin, R. Cammi, C. Pomelli, J. W. Ochterski, 
 R. L. Martin, K. Morokuma, V. G. Zakrzewski, G. A. Voth, 
 P. Salvador, J. J. Dannenberg, S. Dapprich, A. D. Daniels, 
 O. Farkas, J. B. Foresman, J. V. Ortiz, J. Cioslowski, 
 and D. J. Fox, Gaussian, Inc., Wallingford CT, 2010.
 
  
 -----  Compilado por  -----------------------------------------
  
  Servicio de Calculo | Servicio de Informatica U. de Valencia
     calculo@uv.es    |  E-46100 Burjassot (Valencia) SPAIN
  
 ---------------------------------------------------------------
  
 ******************************************
 Gaussian 09:  EM64L-G09RevC.01 23-Sep-2011
                21-Aug-2020 
 ******************************************
 %chk=opt_freq.chk
 %nproc=6
 Will use up to    6 processors via shared memory.
 %mem=20GB
 Default route:  CacheSize=131072
 -----------------------
 #sp wB97XD/6-311+G(3df)
 -----------------------
 1/4=131072,38=1/1;
 2/4=131072,12=2,17=6,18=5,40=1/2;
 3/4=131072,5=4,6=6,7=16,11=2,16=1,25=1,30=1,74=-58/1,2,3;
 4/4=131072/1;
 5/4=131072,5=2,38=5/2;
 6/4=131072,7=2,8=2,9=2,10=2,28=1/1;
 99/4=131072,5=1,9=1/99;
 ---------------------
 Optimizacion del hoso
 ---------------------
 Charge =  0 Multiplicity = 2
 Symbolic Z-Matrix:
 S                    -0.17884  -0.42801   0.01631 
 O                     1.32013   0.24847  -0.04904 
 O                    -1.10364   0.46144  -0.01804 
 H                     1.07952   1.14285   0.28168 
 
                          Input orientation:                          
 ---------------------------------------------------------------------
 Center     Atomic      Atomic             Coordinates (Angstroms)
 Number     Number       Type             X           Y           Z
 ---------------------------------------------------------------------
      1         16           0       -0.178843   -0.428008    0.016308
      2          8           0        1.320132    0.248471   -0.049040
      3          8           0       -1.103636    0.461438   -0.018037
      4          1           0        1.079521    1.142845    0.281681
 ---------------------------------------------------------------------
                    Distance matrix (angstroms):
                    1          2          3          4
     1  S    0.000000
     2  O    1.645849   0.000000
     3  O    1.283564   2.433304   0.000000
     4  H    2.030143   0.983450   2.306582   0.000000
 Stoichiometry    HO2S(2)
 Framework group  C1[X(HO2S)]
 Deg. of freedom     6
 Full point group                 C1      NOp   1
 Largest Abelian subgroup         C1      NOp   1
 Largest concise Abelian subgroup C1      NOp   1
                         Standard orientation:                         
 ---------------------------------------------------------------------
 Center     Atomic      Atomic             Coordinates (Angstroms)
 Number     Number       Type             X           Y           Z
 ---------------------------------------------------------------------
      1         16           0       -0.199800   -0.417073    0.018770
      2          8           0        1.333189    0.178439   -0.045491
      3          8           0       -1.075973    0.519832   -0.026677
      4          1           0        1.139068    1.086993    0.277034
 ---------------------------------------------------------------------
 Rotational constants (GHZ):     43.3606234     10.1735811      8.2729605
 Standard basis: 6-311+G(3df) (5D, 7F)
 There are   128 symmetry adapted basis functions of A   symmetry.
 Integral buffers will be    131072 words long.
 Raffenetti 2 integral format.
 Two-electron integral symmetry is turned on.
   128 basis functions,   193 primitive gaussians,   146 cartesian basis functions
    17 alpha electrons       16 beta electrons
       nuclear repulsion energy       118.1544829293 Hartrees.
 NAtoms=    4 NActive=    4 NUniq=    4 SFac= 1.00D+00 NAtFMM=   60 NAOKFM=F Big=F
 Nuclear repulsion after empirical dispersion term =      118.1542903102 Hartrees.
 One-electron integrals computed using PRISM.
 NBasis=   128 RedAO= T  NBF=   128
 NBsUse=   128 1.00D-06 NBFU=   128
 Harris functional with IExCor= 4639 diagonalized for initial guess.
 ExpMin= 4.05D-02 ExpMax= 9.34D+04 ExpMxC= 3.17D+03 IAcc=2 IRadAn=         4 AccDes= 0.00D+00
 HarFok:  IExCor= 4639 AccDes= 0.00D+00 IRadAn=         4 IDoV= 1
 ScaDFX=  1.000000  1.000000  1.000000  1.000000
 FoFCou: FMM=F IPFlag=           0 FMFlag=      100000 FMFlg1=           0
         NFxFlg=           0 DoJE=T BraDBF=F KetDBF=T FulRan=T
         Omega=  0.000000  0.000000  1.000000  0.000000  0.000000 ICntrl=     500 IOpCl=  0
         NMat0=    1 NMatS0=    1 NMatT0=    0 NMatD0=    1 NMtDS0=    0 NMtDT0=    0
         I1Cent=           4 NGrid=           0.
 Petite list used in FoFCou.
 Initial guess orbital symmetries:
 Alpha Orbitals:
       Occupied  (A) (A) (A) (A) (A) (A) (A) (A) (A) (A) (A) (A)
                 (A) (A) (A) (A) (A)
       Virtual   (A) (A) (A) (A) (A) (A) (A) (A) (A) (A) (A) (A)
                 (A) (A) (A) (A) (A) (A) (A) (A) (A) (A) (A) (A)
                 (A) (A) (A) (A) (A) (A) (A) (A) (A) (A) (A) (A)
                 (A) (A) (A) (A) (A) (A) (A) (A) (A) (A) (A) (A)
                 (A) (A) (A) (A) (A) (A) (A) (A) (A) (A) (A) (A)
                 (A) (A) (A) (A) (A) (A) (A) (A) (A) (A) (A) (A)
                 (A) (A) (A) (A) (A) (A) (A) (A) (A) (A) (A) (A)
                 (A) (A) (A) (A) (A) (A) (A) (A) (A) (A) (A) (A)
                 (A) (A) (A) (A) (A) (A) (A) (A) (A) (A) (A) (A)
                 (A) (A) (A)
 Beta  Orbitals:
       Occupied  (A) (A) (A) (A) (A) (A) (A) (A) (A) (A) (A) (A)
                 (A) (A) (A) (A)
       Virtual   (A) (A) (A) (A) (A) (A) (A) (A) (A) (A) (A) (A)
                 (A) (A) (A) (A) (A) (A) (A) (A) (A) (A) (A) (A)
                 (A) (A) (A) (A) (A) (A) (A) (A) (A) (A) (A) (A)
                 (A) (A) (A) (A) (A) (A) (A) (A) (A) (A) (A) (A)
                 (A) (A) (A) (A) (A) (A) (A) (A) (A) (A) (A) (A)
                 (A) (A) (A) (A) (A) (A) (A) (A) (A) (A) (A) (A)
                 (A) (A) (A) (A) (A) (A) (A) (A) (A) (A) (A) (A)
                 (A) (A) (A) (A) (A) (A) (A) (A) (A) (A) (A) (A)
                 (A) (A) (A) (A) (A) (A) (A) (A) (A) (A) (A) (A)
                 (A) (A) (A) (A)
 The electronic state of the initial guess is 2-A.
 Initial guess <Sx>= 0.0000 <Sy>= 0.0000 <Sz>= 0.5000 <S**2>= 0.7500 S= 0.5000
 Requested convergence on RMS density matrix=1.00D-08 within 128 cycles.
 Requested convergence on MAX density matrix=1.00D-06.
 Requested convergence on             energy=1.00D-06.
 No special actions if energy rises.
 FoFJK:  IHMeth= 1 ICntrl=     0 DoSepK=T KAlg= 1 I1Cent= 0 FoldK=F
 FoFJK:  IHMeth= 1 ICntrl=     0 DoSepK=T KAlg= 1 I1Cent= 0 FoldK=F
 FoFJK:  IHMeth= 1 ICntrl=     0 DoSepK=T KAlg= 1 I1Cent= 0 FoldK=F
 FoFJK:  IHMeth= 1 ICntrl=     0 DoSepK=T KAlg= 1 I1Cent= 0 FoldK=F
 FoFJK:  IHMeth= 1 ICntrl=     0 DoSepK=T KAlg= 1 I1Cent= 0 FoldK=F
 FoFJK:  IHMeth= 1 ICntrl=     0 DoSepK=T KAlg= 1 I1Cent= 0 FoldK=F
 FoFJK:  IHMeth= 1 ICntrl=     0 DoSepK=T KAlg= 1 I1Cent= 0 FoldK=F
 FoFJK:  IHMeth= 1 ICntrl=     0 DoSepK=T KAlg= 1 I1Cent= 0 FoldK=F
 FoFJK:  IHMeth= 1 ICntrl=     0 DoSepK=T KAlg= 1 I1Cent= 0 FoldK=F
 FoFJK:  IHMeth= 1 ICntrl=     0 DoSepK=T KAlg= 1 I1Cent= 0 FoldK=F
 FoFJK:  IHMeth= 1 ICntrl=     0 DoSepK=T KAlg= 1 I1Cent= 0 FoldK=F
 FoFJK:  IHMeth= 1 ICntrl=     0 DoSepK=T KAlg= 1 I1Cent= 0 FoldK=F
 FoFJK:  IHMeth= 1 ICntrl=     0 DoSepK=T KAlg= 1 I1Cent= 0 FoldK=F
 FoFJK:  IHMeth= 1 ICntrl=     0 DoSepK=T KAlg= 1 I1Cent= 0 FoldK=F
 FoFJK:  IHMeth= 1 ICntrl=     0 DoSepK=T KAlg= 1 I1Cent= 0 FoldK=F
 SCF Done:  E(UwB97XD) =  -549.166541855     A.U. after   15 cycles
             Convg  =    0.3720D-08             -V/T =  2.0001
 <Sx>= 0.0000 <Sy>= 0.0000 <Sz>= 0.5000 <S**2>= 0.7547 S= 0.5023
 <L.S>= 0.000000000000E+00
 Annihilation of the first spin contaminant:
 S**2 before annihilation     0.7547,   after     0.7500

 **********************************************************************

            Population analysis using the SCF density.

 **********************************************************************

 Orbital symmetries:
 Alpha Orbitals:
       Occupied  (A) (A) (A) (A) (A) (A) (A) (A) (A) (A) (A) (A)
                 (A) (A) (A) (A) (A)
       Virtual   (A) (A) (A) (A) (A) (A) (A) (A) (A) (A) (A) (A)
                 (A) (A) (A) (A) (A) (A) (A) (A) (A) (A) (A) (A)
                 (A) (A) (A) (A) (A) (A) (A) (A) (A) (A) (A) (A)
                 (A) (A) (A) (A) (A) (A) (A) (A) (A) (A) (A) (A)
                 (A) (A) (A) (A) (A) (A) (A) (A) (A) (A) (A) (A)
                 (A) (A) (A) (A) (A) (A) (A) (A) (A) (A) (A) (A)
                 (A) (A) (A) (A) (A) (A) (A) (A) (A) (A) (A) (A)
                 (A) (A) (A) (A) (A) (A) (A) (A) (A) (A) (A) (A)
                 (A) (A) (A) (A) (A) (A) (A) (A) (A) (A) (A) (A)
                 (A) (A) (A)
 Beta  Orbitals:
       Occupied  (A) (A) (A) (A) (A) (A) (A) (A) (A) (A) (A) (A)
                 (A) (A) (A) (A)
       Virtual   (A) (A) (A) (A) (A) (A) (A) (A) (A) (A) (A) (A)
                 (A) (A) (A) (A) (A) (A) (A) (A) (A) (A) (A) (A)
                 (A) (A) (A) (A) (A) (A) (A) (A) (A) (A) (A) (A)
                 (A) (A) (A) (A) (A) (A) (A) (A) (A) (A) (A) (A)
                 (A) (A) (A) (A) (A) (A) (A) (A) (A) (A) (A) (A)
                 (A) (A) (A) (A) (A) (A) (A) (A) (A) (A) (A) (A)
                 (A) (A) (A) (A) (A) (A) (A) (A) (A) (A) (A) (A)
                 (A) (A) (A) (A) (A) (A) (A) (A) (A) (A) (A) (A)
                 (A) (A) (A) (A) (A) (A) (A) (A) (A) (A) (A) (A)
                 (A) (A) (A) (A)
 The electronic state is 2-A.
 Alpha  occ. eigenvalues --  -89.12482 -19.30633 -19.28205  -8.16051  -6.10908
 Alpha  occ. eigenvalues --   -6.10667  -6.10349  -1.29807  -1.16563  -0.76579
 Alpha  occ. eigenvalues --   -0.62764  -0.61273  -0.60475  -0.53099  -0.47385
 Alpha  occ. eigenvalues --   -0.43357  -0.28322
 Alpha virt. eigenvalues --    0.05822   0.07071   0.08512   0.09275   0.12398
 Alpha virt. eigenvalues --    0.15246   0.19240   0.22449   0.24685   0.25249
 Alpha virt. eigenvalues --    0.26437   0.27755   0.30799   0.32254   0.32662
 Alpha virt. eigenvalues --    0.35522   0.37009   0.37888   0.41135   0.42324
 Alpha virt. eigenvalues --    0.42845   0.53423   0.57586   0.72511   0.80774
 Alpha virt. eigenvalues --    0.81756   0.87417   0.87641   0.92888   0.93794
 Alpha virt. eigenvalues --    0.96505   0.99020   0.99218   1.03551   1.06508
 Alpha virt. eigenvalues --    1.09393   1.10983   1.11697   1.16439   1.22536
 Alpha virt. eigenvalues --    1.27541   1.33138   1.37833   1.41321   1.44229
 Alpha virt. eigenvalues --    1.48684   1.67173   1.68863   1.82830   1.84608
 Alpha virt. eigenvalues --    1.94132   2.00680   2.08288   2.10378   2.11582
 Alpha virt. eigenvalues --    2.16269   2.34228   2.50013   2.56439   3.38204
 Alpha virt. eigenvalues --    3.42045   3.44095   3.49437   3.51528   3.58896
 Alpha virt. eigenvalues --    3.63227   3.65562   3.75526   3.85040   4.54682
 Alpha virt. eigenvalues --    4.68486   4.76957   4.80603   4.85527   5.00046
 Alpha virt. eigenvalues --    5.02713   5.03390   5.04737   5.05923   5.07616
 Alpha virt. eigenvalues --    5.12828   5.15630   5.20288   5.28210   5.35417
 Alpha virt. eigenvalues --    5.43621   5.48675   5.55883   5.58477   5.77481
 Alpha virt. eigenvalues --    5.92782   5.95527   6.27889   6.51383   8.97477
 Alpha virt. eigenvalues --   14.33329  14.36152  14.36838  14.40687  14.43035
 Alpha virt. eigenvalues --   14.45427  14.51740  14.53427  14.68402  14.75968
 Alpha virt. eigenvalues --   17.41898  17.67753  18.35027  50.04209  50.26598
 Alpha virt. eigenvalues --  190.18351
  Beta  occ. eigenvalues --  -89.12099 -19.30382 -19.27482  -8.15706  -6.10674
  Beta  occ. eigenvalues --   -6.10141  -6.09434  -1.28418  -1.15806  -0.74093
  Beta  occ. eigenvalues --   -0.61342  -0.60398  -0.56901  -0.51640  -0.45018
  Beta  occ. eigenvalues --   -0.41882
  Beta virt. eigenvalues --   -0.01185   0.06150   0.07622   0.08885   0.10177
  Beta virt. eigenvalues --    0.13617   0.15907   0.19703   0.22605   0.25051
  Beta virt. eigenvalues --    0.25459   0.26816   0.28147   0.31043   0.32551
  Beta virt. eigenvalues --    0.33870   0.35881   0.37458   0.38533   0.41948
  Beta virt. eigenvalues --    0.42622   0.44678   0.53794   0.57858   0.73044
  Beta virt. eigenvalues --    0.81271   0.82147   0.87793   0.88627   0.93424
  Beta virt. eigenvalues --    0.94280   0.97910   0.99309   1.00319   1.04095
  Beta virt. eigenvalues --    1.07193   1.10362   1.12109   1.12993   1.16739
  Beta virt. eigenvalues --    1.23706   1.28330   1.33441   1.38328   1.42513
  Beta virt. eigenvalues --    1.45046   1.49155   1.70568   1.71163   1.84628
  Beta virt. eigenvalues --    1.86249   1.94862   2.02143   2.08947   2.10976
  Beta virt. eigenvalues --    2.14278   2.16806   2.34718   2.50437   2.57495
  Beta virt. eigenvalues --    3.39206   3.43695   3.45827   3.50176   3.52247
  Beta virt. eigenvalues --    3.59704   3.64920   3.66504   3.75944   3.85859
  Beta virt. eigenvalues --    4.55262   4.69000   4.77083   4.81608   4.86257
  Beta virt. eigenvalues --    5.00621   5.03497   5.04464   5.05499   5.07224
  Beta virt. eigenvalues --    5.08974   5.13528   5.18560   5.20831   5.29131
  Beta virt. eigenvalues --    5.36564   5.44327   5.49265   5.56585   5.59261
  Beta virt. eigenvalues --    5.77784   5.93421   5.97110   6.28441   6.51772
  Beta virt. eigenvalues --    8.97830  14.34748  14.38730  14.39683  14.41817
  Beta virt. eigenvalues --   14.44252  14.46538  14.52343  14.56611  14.69091
  Beta virt. eigenvalues --   14.77515  17.43316  17.68054  18.35383  50.04434
  Beta virt. eigenvalues --   50.27203 190.18653
          Condensed to atoms (all electrons):
              1          2          3          4
     1  S   15.598467  -0.031429  -0.049049   0.011213
     2  O   -0.031429   8.462616   0.012590   0.208999
     3  O   -0.049049   0.012590   8.338661  -0.003618
     4  H    0.011213   0.208999  -0.003618   0.302845
 Mulliken atomic charges:
              1
     1  S    0.470798
     2  O   -0.652776
     3  O   -0.298584
     4  H    0.480562
 Sum of Mulliken atomic charges =   0.00000
 Mulliken charges with hydrogens summed into heavy atoms:
              1
     1  S    0.470798
     2  O   -0.172214
     3  O   -0.298584
 Sum of Mulliken charges with hydrogens summed into heavy atoms =   0.00000
          Atomic-Atomic Spin Densities.
              1          2          3          4
     1  S    1.124665  -0.116967  -0.269742  -0.002676
     2  O   -0.116967   0.153944   0.024195  -0.005001
     3  O   -0.269742   0.024195   0.452519   0.000064
     4  H   -0.002676  -0.005001   0.000064   0.009127
 Mulliken atomic spin densities:
              1
     1  S    0.735280
     2  O    0.056171
     3  O    0.207035
     4  H    0.001514
 Sum of Mulliken atomic spin densities =   1.00000
 Electronic spatial extent (au):  <R**2>=            166.8407
 Charge=              0.0000 electrons
 Dipole moment (field-independent basis, Debye):
    X=              0.2628    Y=              0.4798    Z=              0.5227  Tot=              0.7567
 Quadrupole moment (field-independent basis, Debye-Ang):
   XX=            -26.1947   YY=            -21.6142   ZZ=            -23.3608
   XY=              2.8326   XZ=              0.6091   YZ=              0.8631
 Traceless Quadrupole moment (field-independent basis, Debye-Ang):
   XX=             -2.4714   YY=              2.1090   ZZ=              0.3624
   XY=              2.8326   XZ=              0.6091   YZ=              0.8631
 Octapole moment (field-independent basis, Debye-Ang**2):
  XXX=             -2.3169  YYY=              5.2539  ZZZ=             -0.1484  XYY=              3.5339
  XXY=              0.4663  XXZ=              0.7269  XZZ=             -0.5522  YZZ=              1.6461
  YYZ=              0.8978  XYZ=              0.9353
 Hexadecapole moment (field-independent basis, Debye-Ang**3):
 XXXX=           -133.0066 YYYY=            -47.6368 ZZZZ=            -25.1040 XXXY=              4.3445
 XXXZ=              0.8223 YYYX=              3.7762 YYYZ=              1.1869 ZZZX=              0.3540
 ZZZY=              0.6523 XXYY=            -26.1479 XXZZ=            -25.4934 YYZZ=            -13.0462
 XXYZ=              1.3004 YYXZ=              0.9816 ZZXY=              0.1136
 N-N= 1.181542903102D+02 E-N=-2.302884909894D+03  KE= 8.223359870858D+02
                          Isotropic Fermi Contact Couplings
        Atom                 a.u.       MegaHertz       Gauss      10(-4) cm-1
     1  S(33)              0.09830      33.76408      12.04786      11.26249
     2  O(17)              0.02045     -12.39844      -4.42407      -4.13567
     3  O(17)              0.04491     -27.22675      -9.71518      -9.08187
     4  H(1)               0.00087       3.86704       1.37986       1.28991
 --------------------------------------------------------
       Center         ----  Spin Dipole Couplings  ----
                      3XX-RR        3YY-RR        3ZZ-RR
 --------------------------------------------------------
     1   Atom       -1.493556     -1.605627      3.099183
     2   Atom       -0.233875     -0.213089      0.446964
     3   Atom       -0.644489     -0.642863      1.287353
     4   Atom       -0.006682      0.019971     -0.013289
 --------------------------------------------------------
                        XY            XZ            YZ
 --------------------------------------------------------
     1   Atom       -0.019247      0.010767      0.292016
     2   Atom        0.009373      0.007736     -0.107086
     3   Atom       -0.009137      0.071229      0.080264
     4   Atom        0.003592      0.000699      0.005221
 --------------------------------------------------------


 ---------------------------------------------------------------------------------
              Anisotropic Spin Dipole Couplings in Principal Axis System
 ---------------------------------------------------------------------------------

       Atom             a.u.   MegaHertz   Gauss  10(-4) cm-1        Axes

              Baa    -1.6267   -66.691   -23.797   -22.246  0.1477  0.9871 -0.0613
     1 S(33)  Bbb    -1.4906   -61.114   -21.807   -20.385  0.9890 -0.1476  0.0071
              Bcc     3.1173   127.805    45.604    42.631  0.0021  0.0617  0.9981
 
              Baa    -0.2426    17.556     6.264     5.856  0.7691 -0.6301 -0.1065
     2 O(17)  Bbb    -0.2213    16.015     5.715     5.342  0.6390  0.7606  0.1145
              Bcc     0.4640   -33.572   -11.979   -11.198  0.0089 -0.1561  0.9877
 
              Baa    -0.6587    47.664    17.008    15.899  0.7194  0.6924 -0.0549
     3 O(17)  Bbb    -0.6346    45.916    16.384    15.316 -0.6936  0.7203 -0.0044
              Bcc     1.2933   -93.580   -33.392   -31.215  0.0365  0.0412  0.9985
 
              Baa    -0.0141    -7.519    -2.683    -2.508 -0.0209 -0.1493  0.9886
     4 H(1)   Bbb    -0.0072    -3.819    -1.363    -1.274  0.9913 -0.1315  0.0011
              Bcc     0.0212    11.338     4.046     3.782  0.1298  0.9800  0.1508
 

 ---------------------------------------------------------------------------------

 1\1\ CPUSERV-QCEXNOD16\SP\UwB97XD\6-311+G(3df)\H1O2S1(2)\ROOT\21-Aug-2
 020\0\\#sp wB97XD/6-311+G(3df)\\Optimizacion del hoso\\0,2\S,0,-0.1788
 43,-0.428008,0.016308\O,0,1.320132,0.248471,-0.04904\O,0,-1.103636,0.4
 61438,-0.018037\H,0,1.079521,1.142845,0.281681\\Version=EM64L-G09RevC.
 01\State=2-A\HF=-549.1665419\S2=0.754661\S2-1=0.\S2A=0.750014\RMSD=3.7
 20e-09\Dipole=0.0941474,0.192352,0.2067968\Quadrupole=-2.0471629,1.770
 8041,0.2763589,1.9132502,0.4434813,0.6685267\PG=C01 [X(H1O2S1)]\\@


 A politician is a person who can make waves and then
 make you think he's the only one who can save the ship.
 -- Ivern Ball
 Job cpu time:  0 days  0 hours  4 minutes 32.6 seconds.
 File lengths (MBytes):  RWF=     21 Int=      0 D2E=      0 Chk=      2 Scr=      1
 Normal termination of Gaussian 09 at Fri Aug 21 00:31:52 2020.
