 Entering Gaussian System, Link 0=g09
 Initial command:
 /soft/g09.c01/g09/l1.exe /scr/macias/389567.qcexmaster_vib1_-0.20/Gau-27027.inp -scrdir=/scr/macias/389567.qcexmaster_vib1_-0.20/
 Entering Link 1 = /soft/g09.c01/g09/l1.exe PID=     27029.
  
 Copyright (c) 1988,1990,1992,1993,1995,1998,2003,2009,2011,
            Gaussian, Inc.  All Rights Reserved.
  
 This is part of the Gaussian(R) 09 program.  It is based on
 the Gaussian(R) 03 system (copyright 2003, Gaussian, Inc.),
 the Gaussian(R) 98 system (copyright 1998, Gaussian, Inc.),
 the Gaussian(R) 94 system (copyright 1995, Gaussian, Inc.),
 the Gaussian 92(TM) system (copyright 1992, Gaussian, Inc.),
 the Gaussian 90(TM) system (copyright 1990, Gaussian, Inc.),
 the Gaussian 88(TM) system (copyright 1988, Gaussian, Inc.),
 the Gaussian 86(TM) system (copyright 1986, Carnegie Mellon
 University), and the Gaussian 82(TM) system (copyright 1983,
 Carnegie Mellon University). Gaussian is a federally registered
 trademark of Gaussian, Inc.
  
 This software contains proprietary and confidential information,
 including trade secrets, belonging to Gaussian, Inc.
  
 This software is provided under written license and may be
 used, copied, transmitted, or stored only in accord with that
 written license.
  
 The following legend is applicable only to US Government
 contracts under FAR:
  
                    RESTRICTED RIGHTS LEGEND
  
 Use, reproduction and disclosure by the US Government is
 subject to restrictions as set forth in subparagraphs (a)
 and (c) of the Commercial Computer Software - Restricted
 Rights clause in FAR 52.227-19.
  
 Gaussian, Inc.
 340 Quinnipiac St., Bldg. 40, Wallingford CT 06492
  
  
 ---------------------------------------------------------------
 Warning -- This program may not be used in any manner that
 competes with the business of Gaussian, Inc. or will provide
 assistance to any competitor of Gaussian, Inc.  The licensee
 of this program is prohibited from giving any competitor of
 Gaussian, Inc. access to this program.  By using this program,
 the user acknowledges that Gaussian, Inc. is engaged in the
 business of creating and licensing software in the field of
 computational chemistry and represents and warrants to the
 licensee that it is not a competitor of Gaussian, Inc. and that
 it will not use this program in any manner prohibited above.
 ---------------------------------------------------------------
  

 Cite this work as:
 Gaussian 09, Revision C.01,
 M. J. Frisch, G. W. Trucks, H. B. Schlegel, G. E. Scuseria, 
 M. A. Robb, J. R. Cheeseman, G. Scalmani, V. Barone, B. Mennucci, 
 G. A. Petersson, H. Nakatsuji, M. Caricato, X. Li, H. P. Hratchian, 
 A. F. Izmaylov, J. Bloino, G. Zheng, J. L. Sonnenberg, M. Hada, 
 M. Ehara, K. Toyota, R. Fukuda, J. Hasegawa, M. Ishida, T. Nakajima, 
 Y. Honda, O. Kitao, H. Nakai, T. Vreven, J. A. Montgomery, Jr., 
 J. E. Peralta, F. Ogliaro, M. Bearpark, J. J. Heyd, E. Brothers, 
 K. N. Kudin, V. N. Staroverov, T. Keith, R. Kobayashi, J. Normand, 
 K. Raghavachari, A. Rendell, J. C. Burant, S. S. Iyengar, J. Tomasi, 
 M. Cossi, N. Rega, J. M. Millam, M. Klene, J. E. Knox, J. B. Cross, 
 V. Bakken, C. Adamo, J. Jaramillo, R. Gomperts, R. E. Stratmann, 
 O. Yazyev, A. J. Austin, R. Cammi, C. Pomelli, J. W. Ochterski, 
 R. L. Martin, K. Morokuma, V. G. Zakrzewski, G. A. Voth, 
 P. Salvador, J. J. Dannenberg, S. Dapprich, A. D. Daniels, 
 O. Farkas, J. B. Foresman, J. V. Ortiz, J. Cioslowski, 
 and D. J. Fox, Gaussian, Inc., Wallingford CT, 2010.
 
  
 -----  Compilado por  -----------------------------------------
  
  Servicio de Calculo | Servicio de Informatica U. de Valencia
     calculo@uv.es    |  E-46100 Burjassot (Valencia) SPAIN
  
 ---------------------------------------------------------------
  
 ******************************************
 Gaussian 09:  EM64L-G09RevC.01 23-Sep-2011
                21-Aug-2025 
 ******************************************
 %chk=opt_freq.chk
 %nproc=6
 Will use up to    6 processors via shared memory.
 %mem=20GB
 Default route:  CacheSize=131072
 -----------------------
 #sp wB97XD/6-311+G(3df)
 -----------------------
 1/4=131072,38=1/1;
 2/4=131072,12=2,17=6,18=5,40=1/2;
 3/4=131072,5=4,6=6,7=16,11=2,16=1,25=1,30=1,74=-58/1,2,3;
 4/4=131072/1;
 5/4=131072,5=2,38=5/2;
 6/4=131072,7=2,8=2,9=2,10=2,28=1/1;
 99/4=131072,5=1,9=1/99;
 ---------------------
 Optimizacion del hoso
 ---------------------
 Charge =  0 Multiplicity = 2
 Symbolic Z-Matrix:
 S                    -0.13884  -0.47801   0.01031 
 O                     1.31013   0.25647  -0.02904 
 O                    -1.17964   0.54944  -0.01204 
 H                     1.16752   1.22885   0.07968 
 
                          Input orientation:                          
 ---------------------------------------------------------------------
 Center     Atomic      Atomic             Coordinates (Angstroms)
 Number     Number       Type             X           Y           Z
 ---------------------------------------------------------------------
      1         16           0       -0.138843   -0.478008    0.010308
      2          8           0        1.310132    0.256471   -0.029040
      3          8           0       -1.179636    0.549438   -0.012037
      4          1           0        1.167521    1.228845    0.079681
 ---------------------------------------------------------------------
                    Distance matrix (angstroms):
                    1          2          3          4
     1  S    0.000000
     2  O    1.624973   0.000000
     3  O    1.462667   2.507003   0.000000
     4  H    2.150522   0.988772   2.445230   0.000000
 Stoichiometry    HO2S(2)
 Framework group  C1[X(HO2S)]
 Deg. of freedom     6
 Full point group                 C1      NOp   1
 Largest Abelian subgroup         C1      NOp   1
 Largest concise Abelian subgroup C1      NOp   1
                         Standard orientation:                         
 ---------------------------------------------------------------------
 Center     Atomic      Atomic             Coordinates (Angstroms)
 Number     Number       Type             X           Y           Z
 ---------------------------------------------------------------------
      1         16           0       -0.138597   -0.478965    0.006700
      2          8           0        1.310542    0.255841   -0.017582
      3          8           0       -1.179277    0.548726   -0.008529
      4          1           0        1.167439    1.226905    0.101696
 ---------------------------------------------------------------------
 Rotational constants (GHZ):     34.4883338      9.7647043      7.6138225
 Standard basis: 6-311+G(3df) (5D, 7F)
 There are   128 symmetry adapted basis functions of A   symmetry.
 Integral buffers will be    131072 words long.
 Raffenetti 2 integral format.
 Two-electron integral symmetry is turned on.
   128 basis functions,   193 primitive gaussians,   146 cartesian basis functions
    17 alpha electrons       16 beta electrons
       nuclear repulsion energy       111.4515981001 Hartrees.
 NAtoms=    4 NActive=    4 NUniq=    4 SFac= 1.00D+00 NAtFMM=   60 NAOKFM=F Big=F
 Nuclear repulsion after empirical dispersion term =      111.4513572339 Hartrees.
 One-electron integrals computed using PRISM.
 NBasis=   128 RedAO= T  NBF=   128
 NBsUse=   128 1.00D-06 NBFU=   128
 Harris functional with IExCor= 4639 diagonalized for initial guess.
 ExpMin= 4.05D-02 ExpMax= 9.34D+04 ExpMxC= 3.17D+03 IAcc=2 IRadAn=         4 AccDes= 0.00D+00
 HarFok:  IExCor= 4639 AccDes= 0.00D+00 IRadAn=         4 IDoV= 1
 ScaDFX=  1.000000  1.000000  1.000000  1.000000
 FoFCou: FMM=F IPFlag=           0 FMFlag=      100000 FMFlg1=           0
         NFxFlg=           0 DoJE=T BraDBF=F KetDBF=T FulRan=T
         Omega=  0.000000  0.000000  1.000000  0.000000  0.000000 ICntrl=     500 IOpCl=  0
         NMat0=    1 NMatS0=    1 NMatT0=    0 NMatD0=    1 NMtDS0=    0 NMtDT0=    0
         I1Cent=           4 NGrid=           0.
 Petite list used in FoFCou.
 Initial guess orbital symmetries:
 Alpha Orbitals:
       Occupied  (A) (A) (A) (A) (A) (A) (A) (A) (A) (A) (A) (A)
                 (A) (A) (A) (A) (A)
       Virtual   (A) (A) (A) (A) (A) (A) (A) (A) (A) (A) (A) (A)
                 (A) (A) (A) (A) (A) (A) (A) (A) (A) (A) (A) (A)
                 (A) (A) (A) (A) (A) (A) (A) (A) (A) (A) (A) (A)
                 (A) (A) (A) (A) (A) (A) (A) (A) (A) (A) (A) (A)
                 (A) (A) (A) (A) (A) (A) (A) (A) (A) (A) (A) (A)
                 (A) (A) (A) (A) (A) (A) (A) (A) (A) (A) (A) (A)
                 (A) (A) (A) (A) (A) (A) (A) (A) (A) (A) (A) (A)
                 (A) (A) (A) (A) (A) (A) (A) (A) (A) (A) (A) (A)
                 (A) (A) (A) (A) (A) (A) (A) (A) (A) (A) (A) (A)
                 (A) (A) (A)
 Beta  Orbitals:
       Occupied  (A) (A) (A) (A) (A) (A) (A) (A) (A) (A) (A) (A)
                 (A) (A) (A) (A)
       Virtual   (A) (A) (A) (A) (A) (A) (A) (A) (A) (A) (A) (A)
                 (A) (A) (A) (A) (A) (A) (A) (A) (A) (A) (A) (A)
                 (A) (A) (A) (A) (A) (A) (A) (A) (A) (A) (A) (A)
                 (A) (A) (A) (A) (A) (A) (A) (A) (A) (A) (A) (A)
                 (A) (A) (A) (A) (A) (A) (A) (A) (A) (A) (A) (A)
                 (A) (A) (A) (A) (A) (A) (A) (A) (A) (A) (A) (A)
                 (A) (A) (A) (A) (A) (A) (A) (A) (A) (A) (A) (A)
                 (A) (A) (A) (A) (A) (A) (A) (A) (A) (A) (A) (A)
                 (A) (A) (A) (A) (A) (A) (A) (A) (A) (A) (A) (A)
                 (A) (A) (A) (A)
 The electronic state of the initial guess is 2-A.
 Initial guess <Sx>= 0.0000 <Sy>= 0.0000 <Sz>= 0.5000 <S**2>= 0.7500 S= 0.5000
 Requested convergence on RMS density matrix=1.00D-08 within 128 cycles.
 Requested convergence on MAX density matrix=1.00D-06.
 Requested convergence on             energy=1.00D-06.
 No special actions if energy rises.
 FoFJK:  IHMeth= 1 ICntrl=     0 DoSepK=T KAlg= 1 I1Cent= 0 FoldK=F
 FoFJK:  IHMeth= 1 ICntrl=     0 DoSepK=T KAlg= 1 I1Cent= 0 FoldK=F
 FoFJK:  IHMeth= 1 ICntrl=     0 DoSepK=T KAlg= 1 I1Cent= 0 FoldK=F
 FoFJK:  IHMeth= 1 ICntrl=     0 DoSepK=T KAlg= 1 I1Cent= 0 FoldK=F
 FoFJK:  IHMeth= 1 ICntrl=     0 DoSepK=T KAlg= 1 I1Cent= 0 FoldK=F
 FoFJK:  IHMeth= 1 ICntrl=     0 DoSepK=T KAlg= 1 I1Cent= 0 FoldK=F
 FoFJK:  IHMeth= 1 ICntrl=     0 DoSepK=T KAlg= 1 I1Cent= 0 FoldK=F
 FoFJK:  IHMeth= 1 ICntrl=     0 DoSepK=T KAlg= 1 I1Cent= 0 FoldK=F
 FoFJK:  IHMeth= 1 ICntrl=     0 DoSepK=T KAlg= 1 I1Cent= 0 FoldK=F
 FoFJK:  IHMeth= 1 ICntrl=     0 DoSepK=T KAlg= 1 I1Cent= 0 FoldK=F
 FoFJK:  IHMeth= 1 ICntrl=     0 DoSepK=T KAlg= 1 I1Cent= 0 FoldK=F
 FoFJK:  IHMeth= 1 ICntrl=     0 DoSepK=T KAlg= 1 I1Cent= 0 FoldK=F
 FoFJK:  IHMeth= 1 ICntrl=     0 DoSepK=T KAlg= 1 I1Cent= 0 FoldK=F
 FoFJK:  IHMeth= 1 ICntrl=     0 DoSepK=T KAlg= 1 I1Cent= 0 FoldK=F
 FoFJK:  IHMeth= 1 ICntrl=     0 DoSepK=T KAlg= 1 I1Cent= 0 FoldK=F
 SCF Done:  E(UwB97XD) =  -549.220790673     A.U. after   15 cycles
             Convg  =    0.4908D-08             -V/T =  2.0017
 <Sx>= 0.0000 <Sy>= 0.0000 <Sz>= 0.5000 <S**2>= 0.7554 S= 0.5027
 <L.S>= 0.000000000000E+00
 Annihilation of the first spin contaminant:
 S**2 before annihilation     0.7554,   after     0.7500

 **********************************************************************

            Population analysis using the SCF density.

 **********************************************************************

 Orbital symmetries:
 Alpha Orbitals:
       Occupied  (A) (A) (A) (A) (A) (A) (A) (A) (A) (A) (A) (A)
                 (A) (A) (A) (A) (A)
       Virtual   (A) (A) (A) (A) (A) (A) (A) (A) (A) (A) (A) (A)
                 (A) (A) (A) (A) (A) (A) (A) (A) (A) (A) (A) (A)
                 (A) (A) (A) (A) (A) (A) (A) (A) (A) (A) (A) (A)
                 (A) (A) (A) (A) (A) (A) (A) (A) (A) (A) (A) (A)
                 (A) (A) (A) (A) (A) (A) (A) (A) (A) (A) (A) (A)
                 (A) (A) (A) (A) (A) (A) (A) (A) (A) (A) (A) (A)
                 (A) (A) (A) (A) (A) (A) (A) (A) (A) (A) (A) (A)
                 (A) (A) (A) (A) (A) (A) (A) (A) (A) (A) (A) (A)
                 (A) (A) (A) (A) (A) (A) (A) (A) (A) (A) (A) (A)
                 (A) (A) (A)
 Beta  Orbitals:
       Occupied  (A) (A) (A) (A) (A) (A) (A) (A) (A) (A) (A) (A)
                 (A) (A) (A) (A)
       Virtual   (A) (A) (A) (A) (A) (A) (A) (A) (A) (A) (A) (A)
                 (A) (A) (A) (A) (A) (A) (A) (A) (A) (A) (A) (A)
                 (A) (A) (A) (A) (A) (A) (A) (A) (A) (A) (A) (A)
                 (A) (A) (A) (A) (A) (A) (A) (A) (A) (A) (A) (A)
                 (A) (A) (A) (A) (A) (A) (A) (A) (A) (A) (A) (A)
                 (A) (A) (A) (A) (A) (A) (A) (A) (A) (A) (A) (A)
                 (A) (A) (A) (A) (A) (A) (A) (A) (A) (A) (A) (A)
                 (A) (A) (A) (A) (A) (A) (A) (A) (A) (A) (A) (A)
                 (A) (A) (A) (A) (A) (A) (A) (A) (A) (A) (A) (A)
                 (A) (A) (A) (A)
 The electronic state is 2-A.
 Alpha  occ. eigenvalues --  -89.14920 -19.31989 -19.28284  -8.17679  -6.12608
 Alpha  occ. eigenvalues --   -6.12373  -6.12017  -1.22344  -1.14690  -0.79721
 Alpha  occ. eigenvalues --   -0.62929  -0.57357  -0.56769  -0.50308  -0.47455
 Alpha  occ. eigenvalues --   -0.42478  -0.30728
 Alpha virt. eigenvalues --    0.04939   0.06751   0.07551   0.09407   0.11513
 Alpha virt. eigenvalues --    0.13046   0.18988   0.22602   0.24460   0.24778
 Alpha virt. eigenvalues --    0.26674   0.27712   0.30409   0.32433   0.32973
 Alpha virt. eigenvalues --    0.35529   0.36883   0.37509   0.38987   0.40282
 Alpha virt. eigenvalues --    0.41311   0.51243   0.55282   0.68978   0.77987
 Alpha virt. eigenvalues --    0.79688   0.86996   0.88010   0.94818   0.96187
 Alpha virt. eigenvalues --    0.96887   0.97015   1.00319   1.02811   1.05013
 Alpha virt. eigenvalues --    1.09086   1.09906   1.12762   1.13903   1.17245
 Alpha virt. eigenvalues --    1.22138   1.29403   1.33264   1.38110   1.39684
 Alpha virt. eigenvalues --    1.42502   1.66753   1.68115   1.74975   1.79874
 Alpha virt. eigenvalues --    1.92735   2.02183   2.08109   2.08662   2.13051
 Alpha virt. eigenvalues --    2.20154   2.31321   2.36472   2.46617   3.36509
 Alpha virt. eigenvalues --    3.42249   3.45316   3.47841   3.49782   3.55665
 Alpha virt. eigenvalues --    3.56467   3.62406   3.70384   3.70558   4.53337
 Alpha virt. eigenvalues --    4.57296   4.61379   4.71088   4.91311   4.98565
 Alpha virt. eigenvalues --    5.03179   5.03447   5.04793   5.06558   5.09223
 Alpha virt. eigenvalues --    5.09812   5.11064   5.16429   5.24362   5.24989
 Alpha virt. eigenvalues --    5.40861   5.46384   5.54119   5.56155   5.65792
 Alpha virt. eigenvalues --    5.70080   5.84969   6.00005   6.59060   8.77193
 Alpha virt. eigenvalues --   14.31802  14.35688  14.37320  14.39239  14.41077
 Alpha virt. eigenvalues --   14.45428  14.46006  14.48943  14.62242  14.70895
 Alpha virt. eigenvalues --   17.36073  17.62159  17.89882  50.02458  50.11087
 Alpha virt. eigenvalues --  189.82025
  Beta  occ. eigenvalues --  -89.14533 -19.31719 -19.27419  -8.17333  -6.12379
  Beta  occ. eigenvalues --   -6.11806  -6.11127  -1.21175  -1.13244  -0.77413
  Beta  occ. eigenvalues --   -0.61732  -0.56691  -0.52858  -0.48864  -0.43315
  Beta  occ. eigenvalues --   -0.41294
  Beta virt. eigenvalues --   -0.03708   0.05401   0.07091   0.08015   0.10010
  Beta virt. eigenvalues --    0.12587   0.13590   0.19331   0.22818   0.24812
  Beta virt. eigenvalues --    0.24940   0.27327   0.28004   0.30597   0.32569
  Beta virt. eigenvalues --    0.34231   0.35761   0.37283   0.38479   0.40524
  Beta virt. eigenvalues --    0.40955   0.41560   0.51846   0.55457   0.69471
  Beta virt. eigenvalues --    0.78577   0.80073   0.87296   0.88938   0.95423
  Beta virt. eigenvalues --    0.96491   0.97580   0.98325   1.01239   1.03427
  Beta virt. eigenvalues --    1.05852   1.10012   1.11923   1.13151   1.14288
  Beta virt. eigenvalues --    1.18053   1.23485   1.29811   1.34801   1.38806
  Beta virt. eigenvalues --    1.40080   1.42813   1.69906   1.70061   1.76605
  Beta virt. eigenvalues --    1.81501   1.93457   2.03641   2.08763   2.11025
  Beta virt. eigenvalues --    2.13436   2.20585   2.31806   2.37396   2.47066
  Beta virt. eigenvalues --    3.37521   3.43694   3.47462   3.49020   3.51204
  Beta virt. eigenvalues --    3.57065   3.58128   3.63051   3.70870   3.71633
  Beta virt. eigenvalues --    4.53884   4.57449   4.62244   4.71568   4.91898
  Beta virt. eigenvalues --    4.99205   5.03804   5.04614   5.05419   5.07782
  Beta virt. eigenvalues --    5.11722   5.12653   5.13199   5.17211   5.25267
  Beta virt. eigenvalues --    5.26278   5.41503   5.46913   5.54943   5.56898
  Beta virt. eigenvalues --    5.66313   5.70976   5.86655   6.00502   6.59472
  Beta virt. eigenvalues --    8.77554  14.33247  14.37960  14.40412  14.41147
  Beta virt. eigenvalues --   14.43399  14.46452  14.49398  14.49968  14.62887
  Beta virt. eigenvalues --   14.72870  17.37476  17.62453  17.90203  50.02712
  Beta virt. eigenvalues --   50.11853 189.82332
          Condensed to atoms (all electrons):
              1          2          3          4
     1  S   15.351111  -0.012780   0.138593   0.013251
     2  O   -0.012780   8.415081   0.005499   0.207155
     3  O    0.138593   0.005499   8.242805   0.000779
     4  H    0.013251   0.207155   0.000779   0.286010
 Mulliken atomic charges:
              1
     1  S    0.509826
     2  O   -0.614955
     3  O   -0.387676
     4  H    0.492805
 Sum of Mulliken atomic charges =   0.00000
 Mulliken charges with hydrogens summed into heavy atoms:
              1
     1  S    0.509826
     2  O   -0.122150
     3  O   -0.387676
 Sum of Mulliken charges with hydrogens summed into heavy atoms =   0.00000
          Atomic-Atomic Spin Densities.
              1          2          3          4
     1  S    0.954849  -0.113874  -0.199515   0.003044
     2  O   -0.113874   0.163672   0.021064  -0.003342
     3  O   -0.199515   0.021064   0.470118  -0.001569
     4  H    0.003044  -0.003342  -0.001569  -0.000255
 Mulliken atomic spin densities:
              1
     1  S    0.644504
     2  O    0.067520
     3  O    0.290098
     4  H   -0.002122
 Sum of Mulliken atomic spin densities =   1.00000
 Electronic spatial extent (au):  <R**2>=            176.8506
 Charge=              0.0000 electrons
 Dipole moment (field-independent basis, Debye):
    X=              1.2249    Y=              0.1381    Z=              0.2097  Tot=              1.2504
 Quadrupole moment (field-independent basis, Debye-Ang):
   XX=            -26.8275   YY=            -20.7850   ZZ=            -23.7864
   XY=              3.3614   XZ=              0.2542   YZ=              0.3451
 Traceless Quadrupole moment (field-independent basis, Debye-Ang):
   XX=             -3.0278   YY=              3.0146   ZZ=              0.0132
   XY=              3.3614   XZ=              0.2542   YZ=              0.3451
 Octapole moment (field-independent basis, Debye-Ang**2):
  XXX=              1.0742  YYY=              5.7476  ZZZ=             -0.0278  XYY=              4.7623
  XXY=              0.8012  XXZ=              0.2918  XZZ=             -0.0797  YZZ=              1.0469
  YYZ=              0.4195  XYZ=              0.3975
 Hexadecapole moment (field-independent basis, Debye-Ang**3):
 XXXX=           -140.6393 YYYY=            -51.4955 ZZZZ=            -24.8251 XXXY=              5.4382
 XXXZ=              0.3802 YYYX=              6.6340 YYYZ=              0.6127 ZZZX=              0.1213
 ZZZY=              0.2177 XXYY=            -26.5760 XXZZ=            -26.9724 YYZZ=            -14.1708
 XXYZ=              0.5311 YYXZ=              0.4926 ZZXY=              0.2405
 N-N= 1.114513572339D+02 E-N=-2.281931281479D+03  KE= 8.209795658892D+02
                          Isotropic Fermi Contact Couplings
        Atom                 a.u.       MegaHertz       Gauss      10(-4) cm-1
     1  S(33)              0.10390      35.68604      12.73367      11.90358
     2  O(17)              0.01828     -11.08400      -3.95505      -3.69722
     3  O(17)              0.05133     -31.11795     -11.10366     -10.37983
     4  H(1)              -0.00160      -7.14443      -2.54931      -2.38313
 --------------------------------------------------------
       Center         ----  Spin Dipole Couplings  ----
                      3XX-RR        3YY-RR        3ZZ-RR
 --------------------------------------------------------
     1   Atom       -1.517229     -1.630534      3.147763
     2   Atom       -0.263039     -0.240498      0.503537
     3   Atom       -0.758987     -0.757817      1.516804
     4   Atom       -0.009806      0.021256     -0.011450
 --------------------------------------------------------
                        XY            XZ            YZ
 --------------------------------------------------------
     1   Atom       -0.000650     -0.022928      0.074782
     2   Atom        0.009095      0.008249     -0.049760
     3   Atom        0.003914      0.032500      0.014164
     4   Atom        0.003366      0.000453      0.001884
 --------------------------------------------------------


 ---------------------------------------------------------------------------------
              Anisotropic Spin Dipole Couplings in Principal Axis System
 ---------------------------------------------------------------------------------

       Atom             a.u.   MegaHertz   Gauss  10(-4) cm-1        Axes

              Baa    -1.6317   -66.898   -23.871   -22.315  0.0025  0.9999 -0.0156
     1 S(33)  Bbb    -1.5173   -62.210   -22.198   -20.751  1.0000 -0.0025  0.0050
              Bcc     3.1490   129.108    46.069    43.066 -0.0049  0.0156  0.9999
 
              Baa    -0.2671    19.327     6.896     6.447  0.9241 -0.3805 -0.0345
     2 O(17)  Bbb    -0.2398    17.354     6.192     5.789  0.3820  0.9224  0.0575
              Bcc     0.5069   -36.681   -13.089   -12.235  0.0099 -0.0663  0.9978
 
              Baa    -0.7625    55.172    19.687    18.403  0.7758 -0.6310 -0.0071
     3 O(17)  Bbb    -0.7549    54.623    19.491    18.220  0.6308  0.7758 -0.0139
              Bcc     1.5174  -109.795   -39.178   -36.624  0.0143  0.0062  0.9999
 
              Baa    -0.0116    -6.192    -2.209    -2.065 -0.1757 -0.0384  0.9837
     4 H(1)   Bbb    -0.0101    -5.401    -1.927    -1.802  0.9786 -0.1152  0.1703
              Bcc     0.0217    11.593     4.137     3.867  0.1068  0.9926  0.0578
 

 ---------------------------------------------------------------------------------

 1\1\ CPUSERV-QCEXNOD04\SP\UwB97XD\6-311+G(3df)\H1O2S1(2)\ROOT\21-Aug-2
 025\0\\#sp wB97XD/6-311+G(3df)\\Optimizacion del hoso\\0,2\S,0,-0.1388
 43,-0.478008,0.010308\O,0,1.310132,0.256471,-0.02904\O,0,-1.179636,0.5
 49438,-0.012037\H,0,1.167521,1.228845,0.079681\\Version=EM64L-G09RevC.
 01\State=2-A\HF=-549.2207907\S2=0.755437\S2-1=0.\S2A=0.750021\RMSD=4.9
 08e-09\Dipole=0.4822991,0.0552837,0.0796683\Quadrupole=-2.2496129,2.24
 69133,0.0026996,2.5021446,0.1703833,0.219367\PG=C01 [X(H1O2S1)]\\@


 FORGIVE MY NONSENSE AS I ALSO FORGIVE THOSE WHO THINK THEY TALK SENSE

                                                       -- ROBERT FROST
 Job cpu time:  0 days  0 hours  3 minutes 22.7 seconds.
 File lengths (MBytes):  RWF=     21 Int=      0 D2E=      0 Chk=      2 Scr=      1
 Normal termination of Gaussian 09 at Thu Aug 21 00:03:37 2025.
