 Entering Gaussian System, Link 0=g09
 Initial command:
 /soft/g09.c01/g09/l1.exe /scr/macias/389587.qcexmaster_vib3_-0.10/Gau-17151.inp -scrdir=/scr/macias/389587.qcexmaster_vib3_-0.10/
 Entering Link 1 = /soft/g09.c01/g09/l1.exe PID=     17159.
  
 Copyright (c) 1988,1990,1992,1993,1995,1998,2003,2009,2011,
            Gaussian, Inc.  All Rights Reserved.
  
 This is part of the Gaussian(R) 09 program.  It is based on
 the Gaussian(R) 03 system (copyright 2003, Gaussian, Inc.),
 the Gaussian(R) 98 system (copyright 1998, Gaussian, Inc.),
 the Gaussian(R) 94 system (copyright 1995, Gaussian, Inc.),
 the Gaussian 92(TM) system (copyright 1992, Gaussian, Inc.),
 the Gaussian 90(TM) system (copyright 1990, Gaussian, Inc.),
 the Gaussian 88(TM) system (copyright 1988, Gaussian, Inc.),
 the Gaussian 86(TM) system (copyright 1986, Carnegie Mellon
 University), and the Gaussian 82(TM) system (copyright 1983,
 Carnegie Mellon University). Gaussian is a federally registered
 trademark of Gaussian, Inc.
  
 This software contains proprietary and confidential information,
 including trade secrets, belonging to Gaussian, Inc.
  
 This software is provided under written license and may be
 used, copied, transmitted, or stored only in accord with that
 written license.
  
 The following legend is applicable only to US Government
 contracts under FAR:
  
                    RESTRICTED RIGHTS LEGEND
  
 Use, reproduction and disclosure by the US Government is
 subject to restrictions as set forth in subparagraphs (a)
 and (c) of the Commercial Computer Software - Restricted
 Rights clause in FAR 52.227-19.
  
 Gaussian, Inc.
 340 Quinnipiac St., Bldg. 40, Wallingford CT 06492
  
  
 ---------------------------------------------------------------
 Warning -- This program may not be used in any manner that
 competes with the business of Gaussian, Inc. or will provide
 assistance to any competitor of Gaussian, Inc.  The licensee
 of this program is prohibited from giving any competitor of
 Gaussian, Inc. access to this program.  By using this program,
 the user acknowledges that Gaussian, Inc. is engaged in the
 business of creating and licensing software in the field of
 computational chemistry and represents and warrants to the
 licensee that it is not a competitor of Gaussian, Inc. and that
 it will not use this program in any manner prohibited above.
 ---------------------------------------------------------------
  

 Cite this work as:
 Gaussian 09, Revision C.01,
 M. J. Frisch, G. W. Trucks, H. B. Schlegel, G. E. Scuseria, 
 M. A. Robb, J. R. Cheeseman, G. Scalmani, V. Barone, B. Mennucci, 
 G. A. Petersson, H. Nakatsuji, M. Caricato, X. Li, H. P. Hratchian, 
 A. F. Izmaylov, J. Bloino, G. Zheng, J. L. Sonnenberg, M. Hada, 
 M. Ehara, K. Toyota, R. Fukuda, J. Hasegawa, M. Ishida, T. Nakajima, 
 Y. Honda, O. Kitao, H. Nakai, T. Vreven, J. A. Montgomery, Jr., 
 J. E. Peralta, F. Ogliaro, M. Bearpark, J. J. Heyd, E. Brothers, 
 K. N. Kudin, V. N. Staroverov, T. Keith, R. Kobayashi, J. Normand, 
 K. Raghavachari, A. Rendell, J. C. Burant, S. S. Iyengar, J. Tomasi, 
 M. Cossi, N. Rega, J. M. Millam, M. Klene, J. E. Knox, J. B. Cross, 
 V. Bakken, C. Adamo, J. Jaramillo, R. Gomperts, R. E. Stratmann, 
 O. Yazyev, A. J. Austin, R. Cammi, C. Pomelli, J. W. Ochterski, 
 R. L. Martin, K. Morokuma, V. G. Zakrzewski, G. A. Voth, 
 P. Salvador, J. J. Dannenberg, S. Dapprich, A. D. Daniels, 
 O. Farkas, J. B. Foresman, J. V. Ortiz, J. Cioslowski, 
 and D. J. Fox, Gaussian, Inc., Wallingford CT, 2010.
 
  
 -----  Compilado por  -----------------------------------------
  
  Servicio de Calculo | Servicio de Informatica U. de Valencia
     calculo@uv.es    |  E-46100 Burjassot (Valencia) SPAIN
  
 ---------------------------------------------------------------
  
 ******************************************
 Gaussian 09:  EM64L-G09RevC.01 23-Sep-2011
                21-Aug-2025 
 ******************************************
 %chk=opt_freq.chk
 %nproc=6
 Will use up to    6 processors via shared memory.
 %mem=20GB
 Default route:  CacheSize=131072
 -----------------------
 #sp wB97XD/6-311+G(3df)
 -----------------------
 1/4=131072,38=1/1;
 2/4=131072,12=2,17=6,18=5,40=1/2;
 3/4=131072,5=4,6=6,7=16,11=2,16=1,25=1,30=1,74=-58/1,2,3;
 4/4=131072/1;
 5/4=131072,5=2,38=5/2;
 6/4=131072,7=2,8=2,9=2,10=2,28=1/1;
 99/4=131072,5=1,9=1/99;
 ---------------------
 Optimizacion del hoso
 ---------------------
 Charge =  0 Multiplicity = 2
 Symbolic Z-Matrix:
 S                    -0.17184  -0.49801   0.01831 
 O                     1.38113   0.29447  -0.05004 
 O                    -1.18864   0.55544  -0.02104 
 H                     1.19852   1.18885   0.28368 
 
                          Input orientation:                          
 ---------------------------------------------------------------------
 Center     Atomic      Atomic             Coordinates (Angstroms)
 Number     Number       Type             X           Y           Z
 ---------------------------------------------------------------------
      1         16           0       -0.171843   -0.498008    0.018308
      2          8           0        1.381132    0.294471   -0.050040
      3          8           0       -1.188636    0.555438   -0.021037
      4          1           0        1.198521    1.188845    0.283681
 ---------------------------------------------------------------------
                    Distance matrix (angstroms):
                    1          2          3          4
     1  S    0.000000
     2  O    1.744828   0.000000
     3  O    1.464638   2.583148   0.000000
     4  H    2.189473   0.971916   2.488489   0.000000
 Stoichiometry    HO2S(2)
 Framework group  C1[X(HO2S)]
 Deg. of freedom     6
 Full point group                 C1      NOp   1
 Largest Abelian subgroup         C1      NOp   1
 Largest concise Abelian subgroup C1      NOp   1
                         Standard orientation:                         
 ---------------------------------------------------------------------
 Center     Atomic      Atomic             Coordinates (Angstroms)
 Number     Number       Type             X           Y           Z
 ---------------------------------------------------------------------
      1         16           0       -0.190549   -0.491704    0.016610
      2          8           0        1.391830    0.240759   -0.046647
      3          8           0       -1.166096    0.600052   -0.022651
      4          1           0        1.242908    1.140781    0.288621
 ---------------------------------------------------------------------
 Rotational constants (GHZ):     32.0073819      9.0883212      7.1032507
 Standard basis: 6-311+G(3df) (5D, 7F)
 There are   128 symmetry adapted basis functions of A   symmetry.
 Integral buffers will be    131072 words long.
 Raffenetti 2 integral format.
 Two-electron integral symmetry is turned on.
   128 basis functions,   193 primitive gaussians,   146 cartesian basis functions
    17 alpha electrons       16 beta electrons
       nuclear repulsion energy       108.1018507598 Hartrees.
 NAtoms=    4 NActive=    4 NUniq=    4 SFac= 1.00D+00 NAtFMM=   60 NAOKFM=F Big=F
 Nuclear repulsion after empirical dispersion term =      108.1015846515 Hartrees.
 One-electron integrals computed using PRISM.
 NBasis=   128 RedAO= T  NBF=   128
 NBsUse=   128 1.00D-06 NBFU=   128
 Harris functional with IExCor= 4639 diagonalized for initial guess.
 ExpMin= 4.05D-02 ExpMax= 9.34D+04 ExpMxC= 3.17D+03 IAcc=2 IRadAn=         4 AccDes= 0.00D+00
 HarFok:  IExCor= 4639 AccDes= 0.00D+00 IRadAn=         4 IDoV= 1
 ScaDFX=  1.000000  1.000000  1.000000  1.000000
 FoFCou: FMM=F IPFlag=           0 FMFlag=      100000 FMFlg1=           0
         NFxFlg=           0 DoJE=T BraDBF=F KetDBF=T FulRan=T
         Omega=  0.000000  0.000000  1.000000  0.000000  0.000000 ICntrl=     500 IOpCl=  0
         NMat0=    1 NMatS0=    1 NMatT0=    0 NMatD0=    1 NMtDS0=    0 NMtDT0=    0
         I1Cent=           4 NGrid=           0.
 Petite list used in FoFCou.
 Initial guess orbital symmetries:
 Alpha Orbitals:
       Occupied  (A) (A) (A) (A) (A) (A) (A) (A) (A) (A) (A) (A)
                 (A) (A) (A) (A) (A)
       Virtual   (A) (A) (A) (A) (A) (A) (A) (A) (A) (A) (A) (A)
                 (A) (A) (A) (A) (A) (A) (A) (A) (A) (A) (A) (A)
                 (A) (A) (A) (A) (A) (A) (A) (A) (A) (A) (A) (A)
                 (A) (A) (A) (A) (A) (A) (A) (A) (A) (A) (A) (A)
                 (A) (A) (A) (A) (A) (A) (A) (A) (A) (A) (A) (A)
                 (A) (A) (A) (A) (A) (A) (A) (A) (A) (A) (A) (A)
                 (A) (A) (A) (A) (A) (A) (A) (A) (A) (A) (A) (A)
                 (A) (A) (A) (A) (A) (A) (A) (A) (A) (A) (A) (A)
                 (A) (A) (A) (A) (A) (A) (A) (A) (A) (A) (A) (A)
                 (A) (A) (A)
 Beta  Orbitals:
       Occupied  (A) (A) (A) (A) (A) (A) (A) (A) (A) (A) (A) (A)
                 (A) (A) (A) (A)
       Virtual   (A) (A) (A) (A) (A) (A) (A) (A) (A) (A) (A) (A)
                 (A) (A) (A) (A) (A) (A) (A) (A) (A) (A) (A) (A)
                 (A) (A) (A) (A) (A) (A) (A) (A) (A) (A) (A) (A)
                 (A) (A) (A) (A) (A) (A) (A) (A) (A) (A) (A) (A)
                 (A) (A) (A) (A) (A) (A) (A) (A) (A) (A) (A) (A)
                 (A) (A) (A) (A) (A) (A) (A) (A) (A) (A) (A) (A)
                 (A) (A) (A) (A) (A) (A) (A) (A) (A) (A) (A) (A)
                 (A) (A) (A) (A) (A) (A) (A) (A) (A) (A) (A) (A)
                 (A) (A) (A) (A) (A) (A) (A) (A) (A) (A) (A) (A)
                 (A) (A) (A) (A)
 The electronic state of the initial guess is 2-A.
 Initial guess <Sx>= 0.0000 <Sy>= 0.0000 <Sz>= 0.5000 <S**2>= 0.7500 S= 0.5000
 Requested convergence on RMS density matrix=1.00D-08 within 128 cycles.
 Requested convergence on MAX density matrix=1.00D-06.
 Requested convergence on             energy=1.00D-06.
 No special actions if energy rises.
 FoFJK:  IHMeth= 1 ICntrl=     0 DoSepK=T KAlg= 1 I1Cent= 0 FoldK=F
 FoFJK:  IHMeth= 1 ICntrl=     0 DoSepK=T KAlg= 1 I1Cent= 0 FoldK=F
 FoFJK:  IHMeth= 1 ICntrl=     0 DoSepK=T KAlg= 1 I1Cent= 0 FoldK=F
 FoFJK:  IHMeth= 1 ICntrl=     0 DoSepK=T KAlg= 1 I1Cent= 0 FoldK=F
 FoFJK:  IHMeth= 1 ICntrl=     0 DoSepK=T KAlg= 1 I1Cent= 0 FoldK=F
 FoFJK:  IHMeth= 1 ICntrl=     0 DoSepK=T KAlg= 1 I1Cent= 0 FoldK=F
 FoFJK:  IHMeth= 1 ICntrl=     0 DoSepK=T KAlg= 1 I1Cent= 0 FoldK=F
 FoFJK:  IHMeth= 1 ICntrl=     0 DoSepK=T KAlg= 1 I1Cent= 0 FoldK=F
 FoFJK:  IHMeth= 1 ICntrl=     0 DoSepK=T KAlg= 1 I1Cent= 0 FoldK=F
 FoFJK:  IHMeth= 1 ICntrl=     0 DoSepK=T KAlg= 1 I1Cent= 0 FoldK=F
 FoFJK:  IHMeth= 1 ICntrl=     0 DoSepK=T KAlg= 1 I1Cent= 0 FoldK=F
 FoFJK:  IHMeth= 1 ICntrl=     0 DoSepK=T KAlg= 1 I1Cent= 0 FoldK=F
 FoFJK:  IHMeth= 1 ICntrl=     0 DoSepK=T KAlg= 1 I1Cent= 0 FoldK=F
 FoFJK:  IHMeth= 1 ICntrl=     0 DoSepK=T KAlg= 1 I1Cent= 0 FoldK=F
 FoFJK:  IHMeth= 1 ICntrl=     0 DoSepK=T KAlg= 1 I1Cent= 0 FoldK=F
 FoFJK:  IHMeth= 1 ICntrl=     0 DoSepK=T KAlg= 1 I1Cent= 0 FoldK=F
 SCF Done:  E(UwB97XD) =  -549.215468975     A.U. after   16 cycles
             Convg  =    0.6762D-08             -V/T =  2.0019
 <Sx>= 0.0000 <Sy>= 0.0000 <Sz>= 0.5000 <S**2>= 0.7555 S= 0.5028
 <L.S>= 0.000000000000E+00
 Annihilation of the first spin contaminant:
 S**2 before annihilation     0.7555,   after     0.7500

 **********************************************************************

            Population analysis using the SCF density.

 **********************************************************************

 Orbital symmetries:
 Alpha Orbitals:
       Occupied  (A) (A) (A) (A) (A) (A) (A) (A) (A) (A) (A) (A)
                 (A) (A) (A) (A) (A)
       Virtual   (A) (A) (A) (A) (A) (A) (A) (A) (A) (A) (A) (A)
                 (A) (A) (A) (A) (A) (A) (A) (A) (A) (A) (A) (A)
                 (A) (A) (A) (A) (A) (A) (A) (A) (A) (A) (A) (A)
                 (A) (A) (A) (A) (A) (A) (A) (A) (A) (A) (A) (A)
                 (A) (A) (A) (A) (A) (A) (A) (A) (A) (A) (A) (A)
                 (A) (A) (A) (A) (A) (A) (A) (A) (A) (A) (A) (A)
                 (A) (A) (A) (A) (A) (A) (A) (A) (A) (A) (A) (A)
                 (A) (A) (A) (A) (A) (A) (A) (A) (A) (A) (A) (A)
                 (A) (A) (A) (A) (A) (A) (A) (A) (A) (A) (A) (A)
                 (A) (A) (A)
 Beta  Orbitals:
       Occupied  (A) (A) (A) (A) (A) (A) (A) (A) (A) (A) (A) (A)
                 (A) (A) (A) (A)
       Virtual   (A) (A) (A) (A) (A) (A) (A) (A) (A) (A) (A) (A)
                 (A) (A) (A) (A) (A) (A) (A) (A) (A) (A) (A) (A)
                 (A) (A) (A) (A) (A) (A) (A) (A) (A) (A) (A) (A)
                 (A) (A) (A) (A) (A) (A) (A) (A) (A) (A) (A) (A)
                 (A) (A) (A) (A) (A) (A) (A) (A) (A) (A) (A) (A)
                 (A) (A) (A) (A) (A) (A) (A) (A) (A) (A) (A) (A)
                 (A) (A) (A) (A) (A) (A) (A) (A) (A) (A) (A) (A)
                 (A) (A) (A) (A) (A) (A) (A) (A) (A) (A) (A) (A)
                 (A) (A) (A) (A) (A) (A) (A) (A) (A) (A) (A) (A)
                 (A) (A) (A) (A)
 The electronic state is 2-A.
 Alpha  occ. eigenvalues --  -89.15906 -19.30559 -19.29807  -8.18595  -6.13507
 Alpha  occ. eigenvalues --   -6.13288  -6.12963  -1.20894  -1.13453  -0.79142
 Alpha  occ. eigenvalues --   -0.61795  -0.56656  -0.55917  -0.51690  -0.45835
 Alpha  occ. eigenvalues --   -0.42586  -0.32403
 Alpha virt. eigenvalues --    0.02992   0.06266   0.07102   0.09258   0.10319
 Alpha virt. eigenvalues --    0.13374   0.18974   0.22817   0.24550   0.24721
 Alpha virt. eigenvalues --    0.25994   0.27861   0.30112   0.32074   0.32507
 Alpha virt. eigenvalues --    0.34477   0.35838   0.37539   0.39055   0.40130
 Alpha virt. eigenvalues --    0.40696   0.47688   0.57236   0.66662   0.78146
 Alpha virt. eigenvalues --    0.82247   0.87030   0.87586   0.93545   0.95091
 Alpha virt. eigenvalues --    0.97642   0.97759   0.99467   1.01979   1.05346
 Alpha virt. eigenvalues --    1.08052   1.09327   1.10686   1.12872   1.16481
 Alpha virt. eigenvalues --    1.18503   1.27062   1.31754   1.36910   1.37370
 Alpha virt. eigenvalues --    1.44718   1.66393   1.67134   1.73329   1.78753
 Alpha virt. eigenvalues --    1.89249   1.96918   1.98549   2.07816   2.09837
 Alpha virt. eigenvalues --    2.19707   2.32818   2.36935   2.45475   3.38196
 Alpha virt. eigenvalues --    3.41290   3.44147   3.49169   3.50903   3.54216
 Alpha virt. eigenvalues --    3.56034   3.64180   3.68768   3.71186   4.54455
 Alpha virt. eigenvalues --    4.57742   4.60737   4.62970   4.89938   5.00187
 Alpha virt. eigenvalues --    5.03798   5.04491   5.04801   5.06464   5.07640
 Alpha virt. eigenvalues --    5.08464   5.10102   5.13350   5.21611   5.22847
 Alpha virt. eigenvalues --    5.33567   5.37832   5.41238   5.55350   5.65830
 Alpha virt. eigenvalues --    5.71025   5.82432   5.93380   6.38285   8.64925
 Alpha virt. eigenvalues --   14.33113  14.34575  14.35996  14.40408  14.41654
 Alpha virt. eigenvalues --   14.44010  14.44863  14.48956  14.57365  14.68983
 Alpha virt. eigenvalues --   17.34813  17.59259  17.86209  50.01810  50.09229
 Alpha virt. eigenvalues --  189.69303
  Beta  occ. eigenvalues --  -89.15520 -19.30364 -19.28878  -8.18254  -6.13278
  Beta  occ. eigenvalues --   -6.12754  -6.12051  -1.19285  -1.12483  -0.76318
  Beta  occ. eigenvalues --   -0.60843  -0.55681  -0.52113  -0.49515  -0.42811
  Beta  occ. eigenvalues --   -0.41521
  Beta virt. eigenvalues --   -0.05226   0.03837   0.06560   0.07597   0.09829
  Beta virt. eigenvalues --    0.10848   0.14126   0.19204   0.23042   0.24807
  Beta virt. eigenvalues --    0.25017   0.26416   0.28246   0.30409   0.32396
  Beta virt. eigenvalues --    0.33515   0.34804   0.36522   0.38040   0.40368
  Beta virt. eigenvalues --    0.40685   0.41355   0.48287   0.57397   0.67209
  Beta virt. eigenvalues --    0.78668   0.82550   0.87492   0.88423   0.94369
  Beta virt. eigenvalues --    0.95362   0.98527   0.99246   0.99975   1.02619
  Beta virt. eigenvalues --    1.06073   1.08898   1.10711   1.11698   1.13210
  Beta virt. eigenvalues --    1.17475   1.19575   1.27487   1.33093   1.37626
  Beta virt. eigenvalues --    1.38021   1.45028   1.69003   1.69552   1.74890
  Beta virt. eigenvalues --    1.80346   1.90314   1.97628   2.00192   2.09827
  Beta virt. eigenvalues --    2.10226   2.20234   2.33467   2.37728   2.45882
  Beta virt. eigenvalues --    3.39165   3.43113   3.46568   3.49890   3.52201
  Beta virt. eigenvalues --    3.55958   3.57161   3.64886   3.70029   3.71492
  Beta virt. eigenvalues --    4.55006   4.57901   4.61641   4.63363   4.90621
  Beta virt. eigenvalues --    5.00707   5.04481   5.05178   5.05423   5.07798
  Beta virt. eigenvalues --    5.10440   5.11400   5.12113   5.14047   5.22800
  Beta virt. eigenvalues --    5.23915   5.34257   5.38304   5.41872   5.56050
  Beta virt. eigenvalues --    5.66935   5.71391   5.84247   5.93914   6.38701
  Beta virt. eigenvalues --    8.65314  14.34578  14.37536  14.39632  14.41428
  Beta virt. eigenvalues --   14.43342  14.45554  14.47864  14.50024  14.57859
  Beta virt. eigenvalues --   14.71116  17.36207  17.59566  17.86530  50.02003
  Beta virt. eigenvalues --   50.10053 189.69609
          Condensed to atoms (all electrons):
              1          2          3          4
     1  S   15.268494   0.032777   0.148615   0.010076
     2  O    0.032777   8.436595   0.000265   0.207284
     3  O    0.148615   0.000265   8.200853  -0.000186
     4  H    0.010076   0.207284  -0.000186   0.296395
 Mulliken atomic charges:
              1
     1  S    0.540038
     2  O   -0.676921
     3  O   -0.349548
     4  H    0.486431
 Sum of Mulliken atomic charges =   0.00000
 Mulliken charges with hydrogens summed into heavy atoms:
              1
     1  S    0.540038
     2  O   -0.190490
     3  O   -0.349548
 Sum of Mulliken charges with hydrogens summed into heavy atoms =   0.00000
          Atomic-Atomic Spin Densities.
              1          2          3          4
     1  S    0.900455  -0.073617  -0.190575  -0.000293
     2  O   -0.073617   0.108524   0.015000  -0.002548
     3  O   -0.190575   0.015000   0.491967  -0.000412
     4  H   -0.000293  -0.002548  -0.000412   0.003944
 Mulliken atomic spin densities:
              1
     1  S    0.635970
     2  O    0.047359
     3  O    0.315980
     4  H    0.000691
 Sum of Mulliken atomic spin densities =   1.00000
 Electronic spatial extent (au):  <R**2>=            185.9956
 Charge=              0.0000 electrons
 Dipole moment (field-independent basis, Debye):
    X=              0.5261    Y=             -0.2782    Z=              0.5804  Tot=              0.8313
 Quadrupole moment (field-independent basis, Debye-Ang):
   XX=            -27.0901   YY=            -21.1275   ZZ=            -23.6352
   XY=              3.2374   XZ=              0.7190   YZ=              0.9121
 Traceless Quadrupole moment (field-independent basis, Debye-Ang):
   XX=             -3.1392   YY=              2.8235   ZZ=              0.3157
   XY=              3.2374   XZ=              0.7190   YZ=              0.9121
 Octapole moment (field-independent basis, Debye-Ang**2):
  XXX=             -0.9013  YYY=              4.3066  ZZZ=              0.0287  XYY=              4.1302
  XXY=              0.8215  XXZ=              0.8712  XZZ=             -0.2232  YZZ=              1.0907
  YYZ=              1.0308  XYZ=              1.1446
 Hexadecapole moment (field-independent basis, Debye-Ang**3):
 XXXX=           -150.3898 YYYY=            -54.1760 ZZZZ=            -24.9667 XXXY=              5.6861
 XXXZ=              1.1641 YYYX=              5.2434 YYYZ=              1.4504 ZZZX=              0.3875
 ZZZY=              0.6359 XXYY=            -28.5955 XXZZ=            -28.3243 YYZZ=            -14.1211
 XXYZ=              1.5909 YYXZ=              1.2687 ZZXY=              0.3134
 N-N= 1.081015846515D+02 E-N=-2.271774017880D+03  KE= 8.207964642673D+02
                          Isotropic Fermi Contact Couplings
        Atom                 a.u.       MegaHertz       Gauss      10(-4) cm-1
     1  S(33)              0.09075      31.17138      11.12272      10.39765
     2  O(17)              0.01635      -9.90831      -3.53553      -3.30506
     3  O(17)              0.05341     -32.37729     -11.55302     -10.79990
     4  H(1)               0.00035       1.57618       0.56242       0.52576
 --------------------------------------------------------
       Center         ----  Spin Dipole Couplings  ----
                      3XX-RR        3YY-RR        3ZZ-RR
 --------------------------------------------------------
     1   Atom       -1.501393     -1.610743      3.112136
     2   Atom       -0.220160     -0.163325      0.383486
     3   Atom       -0.801010     -0.811753      1.612763
     4   Atom       -0.005046      0.015521     -0.010475
 --------------------------------------------------------
                        XY            XZ            YZ
 --------------------------------------------------------
     1   Atom        0.008123     -0.034770      0.186210
     2   Atom       -0.004770      0.020801     -0.102961
     3   Atom        0.012252      0.073863      0.053451
     4   Atom        0.004157      0.001213      0.004524
 --------------------------------------------------------


 ---------------------------------------------------------------------------------
              Anisotropic Spin Dipole Couplings in Principal Axis System
 ---------------------------------------------------------------------------------

       Atom             a.u.   MegaHertz   Gauss  10(-4) cm-1        Axes

              Baa    -1.6188   -66.371   -23.683   -22.139 -0.0807  0.9959 -0.0398
     1 S(33)  Bbb    -1.5009   -61.535   -21.957   -20.526  0.9967  0.0809  0.0042
              Bcc     3.1197   127.906    45.640    42.665 -0.0074  0.0393  0.9992
 
              Baa    -0.2209    15.985     5.704     5.332  0.9991  0.0306 -0.0292
     2 O(17)  Bbb    -0.1820    13.173     4.700     4.394 -0.0249  0.9834  0.1799
              Bcc     0.4030   -29.158   -10.404    -9.726  0.0342 -0.1791  0.9832
 
              Baa    -0.8198    59.318    21.166    19.786 -0.5412  0.8409 -0.0020
     3 O(17)  Bbb    -0.7964    57.630    20.564    19.223  0.8403  0.5407 -0.0378
              Bcc     1.6162  -116.948   -41.730   -39.010  0.0306  0.0222  0.9993
 
              Baa    -0.0113    -6.021    -2.149    -2.009 -0.0900 -0.1521  0.9843
     4 H(1)   Bbb    -0.0058    -3.114    -1.111    -1.039  0.9775 -0.2026  0.0581
              Bcc     0.0171     9.135     3.260     3.047  0.1905  0.9674  0.1670
 

 ---------------------------------------------------------------------------------

 1\1\ CPUSERV-QCEXNOD13\SP\UwB97XD\6-311+G(3df)\H1O2S1(2)\ROOT\21-Aug-2
 025\0\\#sp wB97XD/6-311+G(3df)\\Optimizacion del hoso\\0,2\S,0,-0.1718
 43,-0.498008,0.018308\O,0,1.381132,0.294471,-0.05004\O,0,-1.188636,0.5
 55438,-0.021037\H,0,1.198521,1.188845,0.283681\\Version=EM64L-G09RevC.
 01\State=2-A\HF=-549.215469\S2=0.755524\S2-1=0.\S2A=0.750021\RMSD=6.76
 2e-09\Dipole=0.2115379,-0.1009265,0.2280892\Quadrupole=-2.5097148,2.28
 01952,0.2295196,2.2325617,0.5092888,0.6888523\PG=C01 [X(H1O2S1)]\\@


    THE DOUGHNUT CREED
 AS YOU RAMBLE ON THROUGH LIFE, BROTHER
 WHATEVER BE YOUR GOAL
 KEEP YOUR EYE UPON THE DOUGHNUT
 AND NOT UPON THE HOLE.
 Job cpu time:  0 days  0 hours  6 minutes 22.9 seconds.
 File lengths (MBytes):  RWF=     21 Int=      0 D2E=      0 Chk=      2 Scr=      1
 Normal termination of Gaussian 09 at Thu Aug 21 00:40:04 2025.
