 Entering Gaussian System, Link 0=g09
 Initial command:
 /soft/g09.c01/g09/l1.exe /scr/macias/389605.qcexmaster_vib5_-0.10/Gau-9897.inp -scrdir=/scr/macias/389605.qcexmaster_vib5_-0.10/
 Entering Link 1 = /soft/g09.c01/g09/l1.exe PID=      9909.
  
 Copyright (c) 1988,1990,1992,1993,1995,1998,2003,2009,2011,
            Gaussian, Inc.  All Rights Reserved.
  
 This is part of the Gaussian(R) 09 program.  It is based on
 the Gaussian(R) 03 system (copyright 2003, Gaussian, Inc.),
 the Gaussian(R) 98 system (copyright 1998, Gaussian, Inc.),
 the Gaussian(R) 94 system (copyright 1995, Gaussian, Inc.),
 the Gaussian 92(TM) system (copyright 1992, Gaussian, Inc.),
 the Gaussian 90(TM) system (copyright 1990, Gaussian, Inc.),
 the Gaussian 88(TM) system (copyright 1988, Gaussian, Inc.),
 the Gaussian 86(TM) system (copyright 1986, Carnegie Mellon
 University), and the Gaussian 82(TM) system (copyright 1983,
 Carnegie Mellon University). Gaussian is a federally registered
 trademark of Gaussian, Inc.
  
 This software contains proprietary and confidential information,
 including trade secrets, belonging to Gaussian, Inc.
  
 This software is provided under written license and may be
 used, copied, transmitted, or stored only in accord with that
 written license.
  
 The following legend is applicable only to US Government
 contracts under FAR:
  
                    RESTRICTED RIGHTS LEGEND
  
 Use, reproduction and disclosure by the US Government is
 subject to restrictions as set forth in subparagraphs (a)
 and (c) of the Commercial Computer Software - Restricted
 Rights clause in FAR 52.227-19.
  
 Gaussian, Inc.
 340 Quinnipiac St., Bldg. 40, Wallingford CT 06492
  
  
 ---------------------------------------------------------------
 Warning -- This program may not be used in any manner that
 competes with the business of Gaussian, Inc. or will provide
 assistance to any competitor of Gaussian, Inc.  The licensee
 of this program is prohibited from giving any competitor of
 Gaussian, Inc. access to this program.  By using this program,
 the user acknowledges that Gaussian, Inc. is engaged in the
 business of creating and licensing software in the field of
 computational chemistry and represents and warrants to the
 licensee that it is not a competitor of Gaussian, Inc. and that
 it will not use this program in any manner prohibited above.
 ---------------------------------------------------------------
  

 Cite this work as:
 Gaussian 09, Revision C.01,
 M. J. Frisch, G. W. Trucks, H. B. Schlegel, G. E. Scuseria, 
 M. A. Robb, J. R. Cheeseman, G. Scalmani, V. Barone, B. Mennucci, 
 G. A. Petersson, H. Nakatsuji, M. Caricato, X. Li, H. P. Hratchian, 
 A. F. Izmaylov, J. Bloino, G. Zheng, J. L. Sonnenberg, M. Hada, 
 M. Ehara, K. Toyota, R. Fukuda, J. Hasegawa, M. Ishida, T. Nakajima, 
 Y. Honda, O. Kitao, H. Nakai, T. Vreven, J. A. Montgomery, Jr., 
 J. E. Peralta, F. Ogliaro, M. Bearpark, J. J. Heyd, E. Brothers, 
 K. N. Kudin, V. N. Staroverov, T. Keith, R. Kobayashi, J. Normand, 
 K. Raghavachari, A. Rendell, J. C. Burant, S. S. Iyengar, J. Tomasi, 
 M. Cossi, N. Rega, J. M. Millam, M. Klene, J. E. Knox, J. B. Cross, 
 V. Bakken, C. Adamo, J. Jaramillo, R. Gomperts, R. E. Stratmann, 
 O. Yazyev, A. J. Austin, R. Cammi, C. Pomelli, J. W. Ochterski, 
 R. L. Martin, K. Morokuma, V. G. Zakrzewski, G. A. Voth, 
 P. Salvador, J. J. Dannenberg, S. Dapprich, A. D. Daniels, 
 O. Farkas, J. B. Foresman, J. V. Ortiz, J. Cioslowski, 
 and D. J. Fox, Gaussian, Inc., Wallingford CT, 2010.
 
  
 -----  Compilado por  -----------------------------------------
  
  Servicio de Calculo | Servicio de Informatica U. de Valencia
     calculo@uv.es    |  E-46100 Burjassot (Valencia) SPAIN
  
 ---------------------------------------------------------------
  
 ******************************************
 Gaussian 09:  EM64L-G09RevC.01 23-Sep-2011
                21-Aug-2020 
 ******************************************
 %chk=opt_freq.chk
 %nproc=6
 Will use up to    6 processors via shared memory.
 %mem=20GB
 Default route:  CacheSize=131072
 -----------------------
 #sp wB97XD/6-311+G(3df)
 -----------------------
 1/4=131072,38=1/1;
 2/4=131072,12=2,17=6,18=5,40=1/2;
 3/4=131072,5=4,6=6,7=16,11=2,16=1,25=1,30=1,74=-58/1,2,3;
 4/4=131072/1;
 5/4=131072,5=2,38=5/2;
 6/4=131072,7=2,8=2,9=2,10=2,28=1/1;
 99/4=131072,5=1,9=1/99;
 ---------------------
 Optimizacion del hoso
 ---------------------
 Charge =  0 Multiplicity = 2
 Symbolic Z-Matrix:
 S                    -0.11884  -0.49701   0.01631 
 O                     1.30513   0.26047  -0.04304 
 O                    -1.22664   0.58744  -0.02104 
 H                     1.29852   1.18185   0.24868 
 
                          Input orientation:                          
 ---------------------------------------------------------------------
 Center     Atomic      Atomic             Coordinates (Angstroms)
 Number     Number       Type             X           Y           Z
 ---------------------------------------------------------------------
      1         16           0       -0.118843   -0.497008    0.016308
      2          8           0        1.305132    0.260471   -0.043040
      3          8           0       -1.226636    0.587438   -0.021037
      4          1           0        1.298521    1.181845    0.248681
 ---------------------------------------------------------------------
                    Distance matrix (angstroms):
                    1          2          3          4
     1  S    0.000000
     2  O    1.614002   0.000000
     3  O    1.550685   2.552889   0.000000
     4  H    2.209404   0.966476   2.608157   0.000000
 Stoichiometry    HO2S(2)
 Framework group  C1[X(HO2S)]
 Deg. of freedom     6
 Full point group                 C1      NOp   1
 Largest Abelian subgroup         C1      NOp   1
 Largest concise Abelian subgroup C1      NOp   1
                         Standard orientation:                         
 ---------------------------------------------------------------------
 Center     Atomic      Atomic             Coordinates (Angstroms)
 Number     Number       Type             X           Y           Z
 ---------------------------------------------------------------------
      1         16           0       -0.104678   -0.500791    0.015250
      2          8           0        1.295955    0.298997   -0.044490
      3          8           0       -1.244397    0.550212   -0.017228
      4          1           0        1.262385    1.218980    0.249752
 ---------------------------------------------------------------------
 Rotational constants (GHZ):     31.9729975      9.4064237      7.2885845
 Standard basis: 6-311+G(3df) (5D, 7F)
 There are   128 symmetry adapted basis functions of A   symmetry.
 Integral buffers will be    131072 words long.
 Raffenetti 2 integral format.
 Two-electron integral symmetry is turned on.
   128 basis functions,   193 primitive gaussians,   146 cartesian basis functions
    17 alpha electrons       16 beta electrons
       nuclear repulsion energy       108.7492929226 Hartrees.
 NAtoms=    4 NActive=    4 NUniq=    4 SFac= 1.00D+00 NAtFMM=   60 NAOKFM=F Big=F
 Nuclear repulsion after empirical dispersion term =      108.7490164889 Hartrees.
 One-electron integrals computed using PRISM.
 NBasis=   128 RedAO= T  NBF=   128
 NBsUse=   128 1.00D-06 NBFU=   128
 Harris functional with IExCor= 4639 diagonalized for initial guess.
 ExpMin= 4.05D-02 ExpMax= 9.34D+04 ExpMxC= 3.17D+03 IAcc=2 IRadAn=         4 AccDes= 0.00D+00
 HarFok:  IExCor= 4639 AccDes= 0.00D+00 IRadAn=         4 IDoV= 1
 ScaDFX=  1.000000  1.000000  1.000000  1.000000
 FoFCou: FMM=F IPFlag=           0 FMFlag=      100000 FMFlg1=           0
         NFxFlg=           0 DoJE=T BraDBF=F KetDBF=T FulRan=T
         Omega=  0.000000  0.000000  1.000000  0.000000  0.000000 ICntrl=     500 IOpCl=  0
         NMat0=    1 NMatS0=    1 NMatT0=    0 NMatD0=    1 NMtDS0=    0 NMtDT0=    0
         I1Cent=           4 NGrid=           0.
 Petite list used in FoFCou.
 Initial guess orbital symmetries:
 Alpha Orbitals:
       Occupied  (A) (A) (A) (A) (A) (A) (A) (A) (A) (A) (A) (A)
                 (A) (A) (A) (A) (A)
       Virtual   (A) (A) (A) (A) (A) (A) (A) (A) (A) (A) (A) (A)
                 (A) (A) (A) (A) (A) (A) (A) (A) (A) (A) (A) (A)
                 (A) (A) (A) (A) (A) (A) (A) (A) (A) (A) (A) (A)
                 (A) (A) (A) (A) (A) (A) (A) (A) (A) (A) (A) (A)
                 (A) (A) (A) (A) (A) (A) (A) (A) (A) (A) (A) (A)
                 (A) (A) (A) (A) (A) (A) (A) (A) (A) (A) (A) (A)
                 (A) (A) (A) (A) (A) (A) (A) (A) (A) (A) (A) (A)
                 (A) (A) (A) (A) (A) (A) (A) (A) (A) (A) (A) (A)
                 (A) (A) (A) (A) (A) (A) (A) (A) (A) (A) (A) (A)
                 (A) (A) (A)
 Beta  Orbitals:
       Occupied  (A) (A) (A) (A) (A) (A) (A) (A) (A) (A) (A) (A)
                 (A) (A) (A) (A)
       Virtual   (A) (A) (A) (A) (A) (A) (A) (A) (A) (A) (A) (A)
                 (A) (A) (A) (A) (A) (A) (A) (A) (A) (A) (A) (A)
                 (A) (A) (A) (A) (A) (A) (A) (A) (A) (A) (A) (A)
                 (A) (A) (A) (A) (A) (A) (A) (A) (A) (A) (A) (A)
                 (A) (A) (A) (A) (A) (A) (A) (A) (A) (A) (A) (A)
                 (A) (A) (A) (A) (A) (A) (A) (A) (A) (A) (A) (A)
                 (A) (A) (A) (A) (A) (A) (A) (A) (A) (A) (A) (A)
                 (A) (A) (A) (A) (A) (A) (A) (A) (A) (A) (A) (A)
                 (A) (A) (A) (A) (A) (A) (A) (A) (A) (A) (A) (A)
                 (A) (A) (A) (A)
 The electronic state of the initial guess is 2-A.
 Initial guess <Sx>= 0.0000 <Sy>= 0.0000 <Sz>= 0.5000 <S**2>= 0.7500 S= 0.5000
 Requested convergence on RMS density matrix=1.00D-08 within 128 cycles.
 Requested convergence on MAX density matrix=1.00D-06.
 Requested convergence on             energy=1.00D-06.
 No special actions if energy rises.
 FoFJK:  IHMeth= 1 ICntrl=     0 DoSepK=T KAlg= 1 I1Cent= 0 FoldK=F
 FoFJK:  IHMeth= 1 ICntrl=     0 DoSepK=T KAlg= 1 I1Cent= 0 FoldK=F
 FoFJK:  IHMeth= 1 ICntrl=     0 DoSepK=T KAlg= 1 I1Cent= 0 FoldK=F
 FoFJK:  IHMeth= 1 ICntrl=     0 DoSepK=T KAlg= 1 I1Cent= 0 FoldK=F
 FoFJK:  IHMeth= 1 ICntrl=     0 DoSepK=T KAlg= 1 I1Cent= 0 FoldK=F
 FoFJK:  IHMeth= 1 ICntrl=     0 DoSepK=T KAlg= 1 I1Cent= 0 FoldK=F
 FoFJK:  IHMeth= 1 ICntrl=     0 DoSepK=T KAlg= 1 I1Cent= 0 FoldK=F
 FoFJK:  IHMeth= 1 ICntrl=     0 DoSepK=T KAlg= 1 I1Cent= 0 FoldK=F
 FoFJK:  IHMeth= 1 ICntrl=     0 DoSepK=T KAlg= 1 I1Cent= 0 FoldK=F
 FoFJK:  IHMeth= 1 ICntrl=     0 DoSepK=T KAlg= 1 I1Cent= 0 FoldK=F
 FoFJK:  IHMeth= 1 ICntrl=     0 DoSepK=T KAlg= 1 I1Cent= 0 FoldK=F
 FoFJK:  IHMeth= 1 ICntrl=     0 DoSepK=T KAlg= 1 I1Cent= 0 FoldK=F
 FoFJK:  IHMeth= 1 ICntrl=     0 DoSepK=T KAlg= 1 I1Cent= 0 FoldK=F
 FoFJK:  IHMeth= 1 ICntrl=     0 DoSepK=T KAlg= 1 I1Cent= 0 FoldK=F
 FoFJK:  IHMeth= 1 ICntrl=     0 DoSepK=T KAlg= 1 I1Cent= 0 FoldK=F
 FoFJK:  IHMeth= 1 ICntrl=     0 DoSepK=T KAlg= 1 I1Cent= 0 FoldK=F
 SCF Done:  E(UwB97XD) =  -549.213362567     A.U. after   16 cycles
             Convg  =    0.5613D-08             -V/T =  2.0021
 <Sx>= 0.0000 <Sy>= 0.0000 <Sz>= 0.5000 <S**2>= 0.7561 S= 0.5031
 <L.S>= 0.000000000000E+00
 Annihilation of the first spin contaminant:
 S**2 before annihilation     0.7561,   after     0.7500

 **********************************************************************

            Population analysis using the SCF density.

 **********************************************************************

 Orbital symmetries:
 Alpha Orbitals:
       Occupied  (A) (A) (A) (A) (A) (A) (A) (A) (A) (A) (A) (A)
                 (A) (A) (A) (A) (A)
       Virtual   (A) (A) (A) (A) (A) (A) (A) (A) (A) (A) (A) (A)
                 (A) (A) (A) (A) (A) (A) (A) (A) (A) (A) (A) (A)
                 (A) (A) (A) (A) (A) (A) (A) (A) (A) (A) (A) (A)
                 (A) (A) (A) (A) (A) (A) (A) (A) (A) (A) (A) (A)
                 (A) (A) (A) (A) (A) (A) (A) (A) (A) (A) (A) (A)
                 (A) (A) (A) (A) (A) (A) (A) (A) (A) (A) (A) (A)
                 (A) (A) (A) (A) (A) (A) (A) (A) (A) (A) (A) (A)
                 (A) (A) (A) (A) (A) (A) (A) (A) (A) (A) (A) (A)
                 (A) (A) (A) (A) (A) (A) (A) (A) (A) (A) (A) (A)
                 (A) (A) (A)
 Beta  Orbitals:
       Occupied  (A) (A) (A) (A) (A) (A) (A) (A) (A) (A) (A) (A)
                 (A) (A) (A) (A)
       Virtual   (A) (A) (A) (A) (A) (A) (A) (A) (A) (A) (A) (A)
                 (A) (A) (A) (A) (A) (A) (A) (A) (A) (A) (A) (A)
                 (A) (A) (A) (A) (A) (A) (A) (A) (A) (A) (A) (A)
                 (A) (A) (A) (A) (A) (A) (A) (A) (A) (A) (A) (A)
                 (A) (A) (A) (A) (A) (A) (A) (A) (A) (A) (A) (A)
                 (A) (A) (A) (A) (A) (A) (A) (A) (A) (A) (A) (A)
                 (A) (A) (A) (A) (A) (A) (A) (A) (A) (A) (A) (A)
                 (A) (A) (A) (A) (A) (A) (A) (A) (A) (A) (A) (A)
                 (A) (A) (A) (A) (A) (A) (A) (A) (A) (A) (A) (A)
                 (A) (A) (A) (A)
 The electronic state is 2-A.
 Alpha  occ. eigenvalues --  -89.15645 -19.32287 -19.28463  -8.18235  -6.13195
 Alpha  occ. eigenvalues --   -6.12894  -6.12595  -1.21461  -1.12153  -0.81552
 Alpha  occ. eigenvalues --   -0.63782  -0.56417  -0.55675  -0.49251  -0.46551
 Alpha  occ. eigenvalues --   -0.41633  -0.31996
 Alpha virt. eigenvalues --    0.04187   0.06411   0.07154   0.09415   0.11568
 Alpha virt. eigenvalues --    0.12528   0.18437   0.22600   0.24426   0.24881
 Alpha virt. eigenvalues --    0.26353   0.28334   0.29805   0.32603   0.33047
 Alpha virt. eigenvalues --    0.35514   0.36183   0.37944   0.38725   0.39630
 Alpha virt. eigenvalues --    0.40632   0.48768   0.56171   0.65820   0.78040
 Alpha virt. eigenvalues --    0.81038   0.86910   0.88194   0.93778   0.96051
 Alpha virt. eigenvalues --    0.96997   0.97906   0.99973   1.01530   1.05216
 Alpha virt. eigenvalues --    1.09067   1.09773   1.12571   1.13945   1.14378
 Alpha virt. eigenvalues --    1.22024   1.25964   1.29304   1.37454   1.39364
 Alpha virt. eigenvalues --    1.43033   1.66913   1.67963   1.71830   1.80194
 Alpha virt. eigenvalues --    1.92340   2.02366   2.07063   2.07550   2.14726
 Alpha virt. eigenvalues --    2.22048   2.28142   2.30592   2.41526   3.36998
 Alpha virt. eigenvalues --    3.41691   3.45547   3.47152   3.49808   3.53921
 Alpha virt. eigenvalues --    3.55150   3.63609   3.65982   3.70458   4.52734
 Alpha virt. eigenvalues --    4.53029   4.57604   4.71327   4.83534   4.98322
 Alpha virt. eigenvalues --    5.03154   5.03923   5.04362   5.06688   5.07541
 Alpha virt. eigenvalues --    5.10858   5.11599   5.14906   5.20520   5.21595
 Alpha virt. eigenvalues --    5.41381   5.46832   5.53439   5.55338   5.57254
 Alpha virt. eigenvalues --    5.67197   5.73888   5.93443   6.57255   8.62800
 Alpha virt. eigenvalues --   14.31887  14.35058  14.37221  14.38552  14.40627
 Alpha virt. eigenvalues --   14.43584  14.47180  14.48887  14.60318  14.67160
 Alpha virt. eigenvalues --   17.34987  17.59185  17.73933  50.02074  50.08000
 Alpha virt. eigenvalues --  189.66335
  Beta  occ. eigenvalues --  -89.15271 -19.32051 -19.27482  -8.17901  -6.12976
  Beta  occ. eigenvalues --   -6.12397  -6.11686  -1.20590  -1.10135  -0.79382
  Beta  occ. eigenvalues --   -0.62386  -0.55652  -0.52639  -0.47308  -0.41759
  Beta  occ. eigenvalues --   -0.40410
  Beta virt. eigenvalues --   -0.04980   0.04715   0.06810   0.07596   0.09892
  Beta virt. eigenvalues --    0.12451   0.13110   0.18675   0.22844   0.24726
  Beta virt. eigenvalues --    0.25076   0.26975   0.28683   0.30142   0.32717
  Beta virt. eigenvalues --    0.34127   0.35727   0.36846   0.38678   0.39966
  Beta virt. eigenvalues --    0.40280   0.40954   0.49452   0.56361   0.66266
  Beta virt. eigenvalues --    0.78551   0.81392   0.87435   0.88927   0.94352
  Beta virt. eigenvalues --    0.96583   0.97791   0.98892   1.01057   1.02338
  Beta virt. eigenvalues --    1.05964   1.09816   1.11836   1.12841   1.14739
  Beta virt. eigenvalues --    1.14838   1.23285   1.26537   1.30808   1.37851
  Beta virt. eigenvalues --    1.40203   1.43365   1.69585   1.70056   1.73372
  Beta virt. eigenvalues --    1.81624   1.93160   2.03715   2.08162   2.09320
  Beta virt. eigenvalues --    2.15150   2.22531   2.28924   2.31127   2.41949
  Beta virt. eigenvalues --    3.37839   3.43095   3.47370   3.49062   3.51516
  Beta virt. eigenvalues --    3.55548   3.56958   3.64436   3.67084   3.70975
  Beta virt. eigenvalues --    4.53123   4.53303   4.58394   4.71866   4.84056
  Beta virt. eigenvalues --    4.98863   5.03983   5.04747   5.04975   5.07731
  Beta virt. eigenvalues --    5.11979   5.13246   5.13764   5.15882   5.22002
  Beta virt. eigenvalues --    5.22507   5.41984   5.47274   5.54285   5.56209
  Beta virt. eigenvalues --    5.58553   5.67542   5.75629   5.93944   6.57701
  Beta virt. eigenvalues --    8.63158  14.33111  14.37182  14.39833  14.41522
  Beta virt. eigenvalues --   14.43522  14.47492  14.48128  14.50045  14.60881
  Beta virt. eigenvalues --   14.69463  17.36335  17.59454  17.74235  50.02315
  Beta virt. eigenvalues --   50.08879 189.66632
          Condensed to atoms (all electrons):
              1          2          3          4
     1  S   15.294610  -0.005656   0.190231   0.008381
     2  O   -0.005656   8.393059   0.002218   0.208765
     3  O    0.190231   0.002218   8.220373   0.000170
     4  H    0.008381   0.208765   0.000170   0.283741
 Mulliken atomic charges:
              1
     1  S    0.512434
     2  O   -0.598386
     3  O   -0.412992
     4  H    0.498944
 Sum of Mulliken atomic charges =   0.00000
 Mulliken charges with hydrogens summed into heavy atoms:
              1
     1  S    0.512434
     2  O   -0.099442
     3  O   -0.412992
 Sum of Mulliken charges with hydrogens summed into heavy atoms =   0.00000
          Atomic-Atomic Spin Densities.
              1          2          3          4
     1  S    0.856813  -0.096422  -0.168866  -0.000361
     2  O   -0.096422   0.142984   0.016875  -0.003736
     3  O   -0.168866   0.016875   0.501197  -0.000541
     4  H   -0.000361  -0.003736  -0.000541   0.005107
 Mulliken atomic spin densities:
              1
     1  S    0.591164
     2  O    0.059701
     3  O    0.348665
     4  H    0.000469
 Sum of Mulliken atomic spin densities =   1.00000
 Electronic spatial extent (au):  <R**2>=            182.6572
 Charge=              0.0000 electrons
 Dipole moment (field-independent basis, Debye):
    X=              1.7441    Y=             -0.0104    Z=              0.5346  Tot=              1.8242
 Quadrupole moment (field-independent basis, Debye-Ang):
   XX=            -26.7573   YY=            -20.7575   ZZ=            -23.7464
   XY=              3.5847   XZ=              0.7327   YZ=              0.8380
 Traceless Quadrupole moment (field-independent basis, Debye-Ang):
   XX=             -3.0036   YY=              2.9962   ZZ=              0.0073
   XY=              3.5847   XZ=              0.7327   YZ=              0.8380
 Octapole moment (field-independent basis, Debye-Ang**2):
  XXX=              3.3307  YYY=              5.4203  ZZZ=              0.0060  XYY=              5.0876
  XXY=              1.5495  XXZ=              0.9044  XZZ=              0.4507  YZZ=              1.1182
  YYZ=              1.0368  XYZ=              1.0534
 Hexadecapole moment (field-independent basis, Debye-Ang**3):
 XXXX=           -145.1588 YYYY=            -53.4888 ZZZZ=            -25.1350 XXXY=              6.7426
 XXXZ=              1.3822 YYYX=              7.5471 YYYZ=              1.5159 ZZZX=              0.3976
 ZZZY=              0.5657 XXYY=            -26.7852 XXZZ=            -27.5756 YYZZ=            -14.3116
 XXYZ=              1.4608 YYXZ=              1.3399 ZZXY=              0.5612
 N-N= 1.087490164889D+02 E-N=-2.273627735329D+03  KE= 8.206668963259D+02
                          Isotropic Fermi Contact Couplings
        Atom                 a.u.       MegaHertz       Gauss      10(-4) cm-1
     1  S(33)              0.10024      34.42900      12.28512      11.48428
     2  O(17)              0.02058     -12.47843      -4.45261      -4.16236
     3  O(17)              0.05405     -32.76781     -11.69237     -10.93017
     4  H(1)               0.00043       1.92766       0.68784       0.64300
 --------------------------------------------------------
       Center         ----  Spin Dipole Couplings  ----
                      3XX-RR        3YY-RR        3ZZ-RR
 --------------------------------------------------------
     1   Atom       -1.473182     -1.575590      3.048773
     2   Atom       -0.237596     -0.196986      0.434582
     3   Atom       -0.845338     -0.846358      1.691695
     4   Atom       -0.009510      0.019809     -0.010299
 --------------------------------------------------------
                        XY            XZ            YZ
 --------------------------------------------------------
     1   Atom        0.009458     -0.078500      0.124655
     2   Atom        0.007442      0.014935     -0.108721
     3   Atom        0.008741      0.088468      0.020180
     4   Atom        0.006124      0.001478      0.004533
 --------------------------------------------------------


 ---------------------------------------------------------------------------------
              Anisotropic Spin Dipole Couplings in Principal Axis System
 ---------------------------------------------------------------------------------

       Atom             a.u.   MegaHertz   Gauss  10(-4) cm-1        Axes

              Baa    -1.5802   -64.787   -23.118   -21.611 -0.1088  0.9937 -0.0286
     1 S(33)  Bbb    -1.4733   -60.403   -21.553   -20.148  0.9939  0.1092  0.0142
              Bcc     3.0535   125.190    44.671    41.759 -0.0173  0.0269  0.9995
 
              Baa    -0.2415    17.475     6.236     5.829  0.9370 -0.3411 -0.0756
     2 O(17)  Bbb    -0.2115    15.306     5.462     5.106  0.3488  0.9255  0.1477
              Bcc     0.4530   -32.781   -11.697   -10.935  0.0196 -0.1647  0.9861
 
              Baa    -0.8556    61.908    22.090    20.650  0.7471 -0.6644 -0.0207
     3 O(17)  Bbb    -0.8394    60.737    21.673    20.260  0.6638  0.7474 -0.0292
              Bcc     1.6949  -122.645   -43.763   -40.910  0.0348  0.0081  0.9994
 
              Baa    -0.0114    -6.102    -2.177    -2.035 -0.6307  0.0110  0.7760
     4 H(1)   Bbb    -0.0103    -5.496    -1.961    -1.833  0.7507 -0.2451  0.6136
              Bcc     0.0217    11.598     4.138     3.869  0.1969  0.9694  0.1463
 

 ---------------------------------------------------------------------------------

 1\1\ CPUSERV-QCEXNOD16\SP\UwB97XD\6-311+G(3df)\H1O2S1(2)\ROOT\21-Aug-2
 020\0\\#sp wB97XD/6-311+G(3df)\\Optimizacion del hoso\\0,2\S,0,-0.1188
 43,-0.497008,0.016308\O,0,1.305132,0.260471,-0.04304\O,0,-1.226636,0.5
 87438,-0.021037\H,0,1.298521,1.181845,0.248681\\Version=EM64L-G09RevC.
 01\State=2-A\HF=-549.2133626\S2=0.75612\S2-1=0.\S2A=0.750025\RMSD=5.61
 3e-09\Dipole=0.6853904,-0.0239893,0.2115886\Quadrupole=-2.0720565,2.06
 79728,0.0040837,2.7939321,0.5518655,0.6057005\PG=C01 [X(H1O2S1)]\\@


 REVOLUTIONS HAVE NEVER LIGHTENED THE BURDEN OF TYRANNY:
 THEY HAVE MERELY SHIFTED IT TO OTHER SHOULDERS.
                                   -- G. B. SHAW (1903)
 Job cpu time:  0 days  0 hours  4 minutes 57.9 seconds.
 File lengths (MBytes):  RWF=     21 Int=      0 D2E=      0 Chk=      2 Scr=      1
 Normal termination of Gaussian 09 at Fri Aug 21 00:31:56 2020.
