 Entering Gaussian System, Link 0=g09
 Initial command:
 /soft/g09.c01/g09/l1.exe /scr/macias/389601.qcexmaster_vib4_0.15/Gau-25779.inp -scrdir=/scr/macias/389601.qcexmaster_vib4_0.15/
 Entering Link 1 = /soft/g09.c01/g09/l1.exe PID=     25788.
  
 Copyright (c) 1988,1990,1992,1993,1995,1998,2003,2009,2011,
            Gaussian, Inc.  All Rights Reserved.
  
 This is part of the Gaussian(R) 09 program.  It is based on
 the Gaussian(R) 03 system (copyright 2003, Gaussian, Inc.),
 the Gaussian(R) 98 system (copyright 1998, Gaussian, Inc.),
 the Gaussian(R) 94 system (copyright 1995, Gaussian, Inc.),
 the Gaussian 92(TM) system (copyright 1992, Gaussian, Inc.),
 the Gaussian 90(TM) system (copyright 1990, Gaussian, Inc.),
 the Gaussian 88(TM) system (copyright 1988, Gaussian, Inc.),
 the Gaussian 86(TM) system (copyright 1986, Carnegie Mellon
 University), and the Gaussian 82(TM) system (copyright 1983,
 Carnegie Mellon University). Gaussian is a federally registered
 trademark of Gaussian, Inc.
  
 This software contains proprietary and confidential information,
 including trade secrets, belonging to Gaussian, Inc.
  
 This software is provided under written license and may be
 used, copied, transmitted, or stored only in accord with that
 written license.
  
 The following legend is applicable only to US Government
 contracts under FAR:
  
                    RESTRICTED RIGHTS LEGEND
  
 Use, reproduction and disclosure by the US Government is
 subject to restrictions as set forth in subparagraphs (a)
 and (c) of the Commercial Computer Software - Restricted
 Rights clause in FAR 52.227-19.
  
 Gaussian, Inc.
 340 Quinnipiac St., Bldg. 40, Wallingford CT 06492
  
  
 ---------------------------------------------------------------
 Warning -- This program may not be used in any manner that
 competes with the business of Gaussian, Inc. or will provide
 assistance to any competitor of Gaussian, Inc.  The licensee
 of this program is prohibited from giving any competitor of
 Gaussian, Inc. access to this program.  By using this program,
 the user acknowledges that Gaussian, Inc. is engaged in the
 business of creating and licensing software in the field of
 computational chemistry and represents and warrants to the
 licensee that it is not a competitor of Gaussian, Inc. and that
 it will not use this program in any manner prohibited above.
 ---------------------------------------------------------------
  

 Cite this work as:
 Gaussian 09, Revision C.01,
 M. J. Frisch, G. W. Trucks, H. B. Schlegel, G. E. Scuseria, 
 M. A. Robb, J. R. Cheeseman, G. Scalmani, V. Barone, B. Mennucci, 
 G. A. Petersson, H. Nakatsuji, M. Caricato, X. Li, H. P. Hratchian, 
 A. F. Izmaylov, J. Bloino, G. Zheng, J. L. Sonnenberg, M. Hada, 
 M. Ehara, K. Toyota, R. Fukuda, J. Hasegawa, M. Ishida, T. Nakajima, 
 Y. Honda, O. Kitao, H. Nakai, T. Vreven, J. A. Montgomery, Jr., 
 J. E. Peralta, F. Ogliaro, M. Bearpark, J. J. Heyd, E. Brothers, 
 K. N. Kudin, V. N. Staroverov, T. Keith, R. Kobayashi, J. Normand, 
 K. Raghavachari, A. Rendell, J. C. Burant, S. S. Iyengar, J. Tomasi, 
 M. Cossi, N. Rega, J. M. Millam, M. Klene, J. E. Knox, J. B. Cross, 
 V. Bakken, C. Adamo, J. Jaramillo, R. Gomperts, R. E. Stratmann, 
 O. Yazyev, A. J. Austin, R. Cammi, C. Pomelli, J. W. Ochterski, 
 R. L. Martin, K. Morokuma, V. G. Zakrzewski, G. A. Voth, 
 P. Salvador, J. J. Dannenberg, S. Dapprich, A. D. Daniels, 
 O. Farkas, J. B. Foresman, J. V. Ortiz, J. Cioslowski, 
 and D. J. Fox, Gaussian, Inc., Wallingford CT, 2010.
 
  
 -----  Compilado por  -----------------------------------------
  
  Servicio de Calculo | Servicio de Informatica U. de Valencia
     calculo@uv.es    |  E-46100 Burjassot (Valencia) SPAIN
  
 ---------------------------------------------------------------
  
 ******************************************
 Gaussian 09:  EM64L-G09RevC.01 23-Sep-2011
                20-Aug-2025 
 ******************************************
 %chk=opt_freq.chk
 %nproc=6
 Will use up to    6 processors via shared memory.
 %mem=20GB
 Default route:  CacheSize=131072
 -----------------------
 #sp wB97XD/6-311+G(3df)
 -----------------------
 1/4=131072,38=1/1;
 2/4=131072,12=2,17=6,18=5,40=1/2;
 3/4=131072,5=4,6=6,7=16,11=2,16=1,25=1,30=1,74=-58/1,2,3;
 4/4=131072/1;
 5/4=131072,5=2,38=5/2;
 6/4=131072,7=2,8=2,9=2,10=2,28=1/1;
 99/4=131072,5=1,9=1/99;
 ---------------------
 Optimizacion del hoso
 ---------------------
 Charge =  0 Multiplicity = 2
 Symbolic Z-Matrix:
 S                    -0.13284  -0.47101   0.01781 
 O                     1.31763   0.24747  -0.04804 
 O                    -1.19614   0.54994  -0.02004 
 H                     1.08152   1.14034   0.28518 
 
                          Input orientation:                          
 ---------------------------------------------------------------------
 Center     Atomic      Atomic             Coordinates (Angstroms)
 Number     Number       Type             X           Y           Z
 ---------------------------------------------------------------------
      1         16           0       -0.132843   -0.471008    0.017808
      2          8           0        1.317632    0.247471   -0.048040
      3          8           0       -1.196136    0.549938   -0.020037
      4          1           0        1.081521    1.140345    0.285181
 ---------------------------------------------------------------------
                    Distance matrix (angstroms):
                    1          2          3          4
     1  S    0.000000
     2  O    1.620008   0.000000
     3  O    1.474569   2.532055   0.000000
     4  H    2.035344   0.981839   2.372648   0.000000
 Stoichiometry    HO2S(2)
 Framework group  C1[X(HO2S)]
 Deg. of freedom     6
 Full point group                 C1      NOp   1
 Largest Abelian subgroup         C1      NOp   1
 Largest concise Abelian subgroup C1      NOp   1
                         Standard orientation:                         
 ---------------------------------------------------------------------
 Center     Atomic      Atomic             Coordinates (Angstroms)
 Number     Number       Type             X           Y           Z
 ---------------------------------------------------------------------
      1         16           0       -0.120294   -0.473256    0.017256
      2          8           0        1.314111    0.276940   -0.046883
      3          8           0       -1.205753    0.523986   -0.023271
      4          1           0        1.057839    1.164692    0.285127
 ---------------------------------------------------------------------
 Rotational constants (GHZ):     35.5442412      9.6052734      7.5899631
 Standard basis: 6-311+G(3df) (5D, 7F)
 There are   128 symmetry adapted basis functions of A   symmetry.
 Integral buffers will be    131072 words long.
 Raffenetti 2 integral format.
 Two-electron integral symmetry is turned on.
   128 basis functions,   193 primitive gaussians,   146 cartesian basis functions
    17 alpha electrons       16 beta electrons
       nuclear repulsion energy       111.3778772742 Hartrees.
 NAtoms=    4 NActive=    4 NUniq=    4 SFac= 1.00D+00 NAtFMM=   60 NAOKFM=F Big=F
 Nuclear repulsion after empirical dispersion term =      111.3776563425 Hartrees.
 One-electron integrals computed using PRISM.
 NBasis=   128 RedAO= T  NBF=   128
 NBsUse=   128 1.00D-06 NBFU=   128
 Harris functional with IExCor= 4639 diagonalized for initial guess.
 ExpMin= 4.05D-02 ExpMax= 9.34D+04 ExpMxC= 3.17D+03 IAcc=2 IRadAn=         4 AccDes= 0.00D+00
 HarFok:  IExCor= 4639 AccDes= 0.00D+00 IRadAn=         4 IDoV= 1
 ScaDFX=  1.000000  1.000000  1.000000  1.000000
 FoFCou: FMM=F IPFlag=           0 FMFlag=      100000 FMFlg1=           0
         NFxFlg=           0 DoJE=T BraDBF=F KetDBF=T FulRan=T
         Omega=  0.000000  0.000000  1.000000  0.000000  0.000000 ICntrl=     500 IOpCl=  0
         NMat0=    1 NMatS0=    1 NMatT0=    0 NMatD0=    1 NMtDS0=    0 NMtDT0=    0
         I1Cent=           4 NGrid=           0.
 Petite list used in FoFCou.
 Initial guess orbital symmetries:
 Alpha Orbitals:
       Occupied  (A) (A) (A) (A) (A) (A) (A) (A) (A) (A) (A) (A)
                 (A) (A) (A) (A) (A)
       Virtual   (A) (A) (A) (A) (A) (A) (A) (A) (A) (A) (A) (A)
                 (A) (A) (A) (A) (A) (A) (A) (A) (A) (A) (A) (A)
                 (A) (A) (A) (A) (A) (A) (A) (A) (A) (A) (A) (A)
                 (A) (A) (A) (A) (A) (A) (A) (A) (A) (A) (A) (A)
                 (A) (A) (A) (A) (A) (A) (A) (A) (A) (A) (A) (A)
                 (A) (A) (A) (A) (A) (A) (A) (A) (A) (A) (A) (A)
                 (A) (A) (A) (A) (A) (A) (A) (A) (A) (A) (A) (A)
                 (A) (A) (A) (A) (A) (A) (A) (A) (A) (A) (A) (A)
                 (A) (A) (A) (A) (A) (A) (A) (A) (A) (A) (A) (A)
                 (A) (A) (A)
 Beta  Orbitals:
       Occupied  (A) (A) (A) (A) (A) (A) (A) (A) (A) (A) (A) (A)
                 (A) (A) (A) (A)
       Virtual   (A) (A) (A) (A) (A) (A) (A) (A) (A) (A) (A) (A)
                 (A) (A) (A) (A) (A) (A) (A) (A) (A) (A) (A) (A)
                 (A) (A) (A) (A) (A) (A) (A) (A) (A) (A) (A) (A)
                 (A) (A) (A) (A) (A) (A) (A) (A) (A) (A) (A) (A)
                 (A) (A) (A) (A) (A) (A) (A) (A) (A) (A) (A) (A)
                 (A) (A) (A) (A) (A) (A) (A) (A) (A) (A) (A) (A)
                 (A) (A) (A) (A) (A) (A) (A) (A) (A) (A) (A) (A)
                 (A) (A) (A) (A) (A) (A) (A) (A) (A) (A) (A) (A)
                 (A) (A) (A) (A) (A) (A) (A) (A) (A) (A) (A) (A)
                 (A) (A) (A) (A)
 The electronic state of the initial guess is 2-A.
 Initial guess <Sx>= 0.0000 <Sy>= 0.0000 <Sz>= 0.5000 <S**2>= 0.7500 S= 0.5000
 Requested convergence on RMS density matrix=1.00D-08 within 128 cycles.
 Requested convergence on MAX density matrix=1.00D-06.
 Requested convergence on             energy=1.00D-06.
 No special actions if energy rises.
 FoFJK:  IHMeth= 1 ICntrl=     0 DoSepK=T KAlg= 1 I1Cent= 0 FoldK=F
 FoFJK:  IHMeth= 1 ICntrl=     0 DoSepK=T KAlg= 1 I1Cent= 0 FoldK=F
 FoFJK:  IHMeth= 1 ICntrl=     0 DoSepK=T KAlg= 1 I1Cent= 0 FoldK=F
 FoFJK:  IHMeth= 1 ICntrl=     0 DoSepK=T KAlg= 1 I1Cent= 0 FoldK=F
 FoFJK:  IHMeth= 1 ICntrl=     0 DoSepK=T KAlg= 1 I1Cent= 0 FoldK=F
 FoFJK:  IHMeth= 1 ICntrl=     0 DoSepK=T KAlg= 1 I1Cent= 0 FoldK=F
 FoFJK:  IHMeth= 1 ICntrl=     0 DoSepK=T KAlg= 1 I1Cent= 0 FoldK=F
 FoFJK:  IHMeth= 1 ICntrl=     0 DoSepK=T KAlg= 1 I1Cent= 0 FoldK=F
 FoFJK:  IHMeth= 1 ICntrl=     0 DoSepK=T KAlg= 1 I1Cent= 0 FoldK=F
 FoFJK:  IHMeth= 1 ICntrl=     0 DoSepK=T KAlg= 1 I1Cent= 0 FoldK=F
 FoFJK:  IHMeth= 1 ICntrl=     0 DoSepK=T KAlg= 1 I1Cent= 0 FoldK=F
 FoFJK:  IHMeth= 1 ICntrl=     0 DoSepK=T KAlg= 1 I1Cent= 0 FoldK=F
 FoFJK:  IHMeth= 1 ICntrl=     0 DoSepK=T KAlg= 1 I1Cent= 0 FoldK=F
 FoFJK:  IHMeth= 1 ICntrl=     0 DoSepK=T KAlg= 1 I1Cent= 0 FoldK=F
 FoFJK:  IHMeth= 1 ICntrl=     0 DoSepK=T KAlg= 1 I1Cent= 0 FoldK=F
 SCF Done:  E(UwB97XD) =  -549.218687735     A.U. after   15 cycles
             Convg  =    0.6749D-08             -V/T =  2.0017
 <Sx>= 0.0000 <Sy>= 0.0000 <Sz>= 0.5000 <S**2>= 0.7556 S= 0.5028
 <L.S>= 0.000000000000E+00
 Annihilation of the first spin contaminant:
 S**2 before annihilation     0.7556,   after     0.7500

 **********************************************************************

            Population analysis using the SCF density.

 **********************************************************************

 Orbital symmetries:
 Alpha Orbitals:
       Occupied  (A) (A) (A) (A) (A) (A) (A) (A) (A) (A) (A) (A)
                 (A) (A) (A) (A) (A)
       Virtual   (A) (A) (A) (A) (A) (A) (A) (A) (A) (A) (A) (A)
                 (A) (A) (A) (A) (A) (A) (A) (A) (A) (A) (A) (A)
                 (A) (A) (A) (A) (A) (A) (A) (A) (A) (A) (A) (A)
                 (A) (A) (A) (A) (A) (A) (A) (A) (A) (A) (A) (A)
                 (A) (A) (A) (A) (A) (A) (A) (A) (A) (A) (A) (A)
                 (A) (A) (A) (A) (A) (A) (A) (A) (A) (A) (A) (A)
                 (A) (A) (A) (A) (A) (A) (A) (A) (A) (A) (A) (A)
                 (A) (A) (A) (A) (A) (A) (A) (A) (A) (A) (A) (A)
                 (A) (A) (A) (A) (A) (A) (A) (A) (A) (A) (A) (A)
                 (A) (A) (A)
 Beta  Orbitals:
       Occupied  (A) (A) (A) (A) (A) (A) (A) (A) (A) (A) (A) (A)
                 (A) (A) (A) (A)
       Virtual   (A) (A) (A) (A) (A) (A) (A) (A) (A) (A) (A) (A)
                 (A) (A) (A) (A) (A) (A) (A) (A) (A) (A) (A) (A)
                 (A) (A) (A) (A) (A) (A) (A) (A) (A) (A) (A) (A)
                 (A) (A) (A) (A) (A) (A) (A) (A) (A) (A) (A) (A)
                 (A) (A) (A) (A) (A) (A) (A) (A) (A) (A) (A) (A)
                 (A) (A) (A) (A) (A) (A) (A) (A) (A) (A) (A) (A)
                 (A) (A) (A) (A) (A) (A) (A) (A) (A) (A) (A) (A)
                 (A) (A) (A) (A) (A) (A) (A) (A) (A) (A) (A) (A)
                 (A) (A) (A) (A) (A) (A) (A) (A) (A) (A) (A) (A)
                 (A) (A) (A) (A)
 The electronic state is 2-A.
 Alpha  occ. eigenvalues --  -89.14992 -19.32589 -19.28627  -8.17757  -6.12670
 Alpha  occ. eigenvalues --   -6.12454  -6.12103  -1.22936  -1.14938  -0.79389
 Alpha  occ. eigenvalues --   -0.63486  -0.58015  -0.56769  -0.50795  -0.47377
 Alpha  occ. eigenvalues --   -0.42628  -0.31179
 Alpha virt. eigenvalues --    0.05037   0.06831   0.07451   0.09297   0.11349
 Alpha virt. eigenvalues --    0.13379   0.18822   0.22140   0.24290   0.24716
 Alpha virt. eigenvalues --    0.26153   0.27713   0.30553   0.32326   0.32763
 Alpha virt. eigenvalues --    0.35730   0.36440   0.37634   0.38794   0.40204
 Alpha virt. eigenvalues --    0.40913   0.50221   0.56032   0.67761   0.78096
 Alpha virt. eigenvalues --    0.81626   0.86959   0.87882   0.93718   0.95568
 Alpha virt. eigenvalues --    0.97060   0.97418   1.00340   1.02857   1.05862
 Alpha virt. eigenvalues --    1.08739   1.09916   1.10628   1.13771   1.17050
 Alpha virt. eigenvalues --    1.22097   1.28949   1.32731   1.36532   1.38583
 Alpha virt. eigenvalues --    1.44233   1.66854   1.68219   1.73890   1.79228
 Alpha virt. eigenvalues --    1.91389   2.01200   2.06686   2.08576   2.12301
 Alpha virt. eigenvalues --    2.20557   2.31107   2.35689   2.49814   3.36773
 Alpha virt. eigenvalues --    3.42036   3.45074   3.47504   3.49878   3.55162
 Alpha virt. eigenvalues --    3.55758   3.62411   3.69463   3.70238   4.53380
 Alpha virt. eigenvalues --    4.57556   4.60685   4.71268   4.89989   4.98370
 Alpha virt. eigenvalues --    5.02897   5.03439   5.04046   5.07277   5.08807
 Alpha virt. eigenvalues --    5.09623   5.10966   5.15917   5.22695   5.24706
 Alpha virt. eigenvalues --    5.39825   5.44337   5.53421   5.56956   5.64510
 Alpha virt. eigenvalues --    5.71603   5.83867   5.98065   6.57571   8.75196
 Alpha virt. eigenvalues --   14.31649  14.35516  14.36805  14.38831  14.41120
 Alpha virt. eigenvalues --   14.43493  14.45468  14.48600  14.62268  14.70316
 Alpha virt. eigenvalues --   17.36008  17.61219  17.87528  50.02196  50.10442
 Alpha virt. eigenvalues --  189.78761
  Beta  occ. eigenvalues --  -89.14604 -19.32338 -19.27741  -8.17411  -6.12440
  Beta  occ. eigenvalues --   -6.11894  -6.11207  -1.21879  -1.13362  -0.76982
  Beta  occ. eigenvalues --   -0.62341  -0.57241  -0.53435  -0.48697  -0.43543
  Beta  occ. eigenvalues --   -0.41377
  Beta virt. eigenvalues --   -0.04112   0.05469   0.07195   0.07923   0.09883
  Beta virt. eigenvalues --    0.12429   0.13940   0.19194   0.22313   0.24547
  Beta virt. eigenvalues --    0.24968   0.26512   0.28178   0.30812   0.32557
  Beta virt. eigenvalues --    0.33846   0.36002   0.36996   0.38358   0.40052
  Beta virt. eigenvalues --    0.40670   0.41736   0.50819   0.56256   0.68276
  Beta virt. eigenvalues --    0.78669   0.81870   0.87886   0.88245   0.94443
  Beta virt. eigenvalues --    0.95904   0.97879   0.98527   1.01363   1.03428
  Beta virt. eigenvalues --    1.06561   1.09892   1.10456   1.12407   1.14118
  Beta virt. eigenvalues --    1.17921   1.23296   1.29590   1.33641   1.37224
  Beta virt. eigenvalues --    1.39373   1.44572   1.70016   1.70185   1.75510
  Beta virt. eigenvalues --    1.80798   1.92190   2.02470   2.07348   2.10902
  Beta virt. eigenvalues --    2.12903   2.21006   2.31629   2.36652   2.50164
  Beta virt. eigenvalues --    3.37661   3.43453   3.47536   3.48422   3.51251
  Beta virt. eigenvalues --    3.56523   3.57610   3.63066   3.70466   3.70821
  Beta virt. eigenvalues --    4.53924   4.57741   4.61527   4.71735   4.90578
  Beta virt. eigenvalues --    4.98947   5.03569   5.04286   5.04760   5.08596
  Beta virt. eigenvalues --    5.11606   5.12402   5.13030   5.16658   5.23666
  Beta virt. eigenvalues --    5.25981   5.40476   5.44860   5.54186   5.57730
  Beta virt. eigenvalues --    5.65431   5.72193   5.85515   5.98590   6.57981
  Beta virt. eigenvalues --    8.75557  14.32921  14.37782  14.39757  14.41021
  Beta virt. eigenvalues --   14.43283  14.44657  14.48707  14.49881  14.62880
  Beta virt. eigenvalues --   14.72326  17.37407  17.61506  17.87848  50.02446
  Beta virt. eigenvalues --   50.11219 189.79068
          Condensed to atoms (all electrons):
              1          2          3          4
     1  S   15.376038  -0.030966   0.141683   0.010544
     2  O   -0.030966   8.427923   0.005363   0.208214
     3  O    0.141683   0.005363   8.241586   0.000769
     4  H    0.010544   0.208214   0.000769   0.283238
 Mulliken atomic charges:
              1
     1  S    0.502701
     2  O   -0.610535
     3  O   -0.389401
     4  H    0.497235
 Sum of Mulliken atomic charges =   0.00000
 Mulliken charges with hydrogens summed into heavy atoms:
              1
     1  S    0.502701
     2  O   -0.113300
     3  O   -0.389401
 Sum of Mulliken charges with hydrogens summed into heavy atoms =   0.00000
          Atomic-Atomic Spin Densities.
              1          2          3          4
     1  S    0.942280  -0.107150  -0.194029  -0.001361
     2  O   -0.107150   0.152184   0.018587  -0.004327
     3  O   -0.194029   0.018587   0.475282  -0.000161
     4  H   -0.001361  -0.004327  -0.000161   0.007135
 Mulliken atomic spin densities:
              1
     1  S    0.639740
     2  O    0.059294
     3  O    0.299679
     4  H    0.001287
 Sum of Mulliken atomic spin densities =   1.00000
 Electronic spatial extent (au):  <R**2>=            177.2572
 Charge=              0.0000 electrons
 Dipole moment (field-independent basis, Debye):
    X=              1.2029    Y=              0.0351    Z=              0.5548  Tot=              1.3251
 Quadrupole moment (field-independent basis, Debye-Ang):
   XX=            -27.1739   YY=            -21.2081   ZZ=            -23.5825
   XY=              2.7748   XZ=              0.5942   YZ=              0.9083
 Traceless Quadrupole moment (field-independent basis, Debye-Ang):
   XX=             -3.1858   YY=              2.7801   ZZ=              0.4057
   XY=              2.7748   XZ=              0.5942   YZ=              0.9083
 Octapole moment (field-independent basis, Debye-Ang**2):
  XXX=              0.8926  YYY=              5.0394  ZZZ=             -0.0474  XYY=              3.9032
  XXY=             -0.0868  XXZ=              0.5891  XZZ=              0.2015  YZZ=              1.1979
  YYZ=              1.0769  XYZ=              0.9739
 Hexadecapole moment (field-independent basis, Debye-Ang**3):
 XXXX=           -142.1317 YYYY=            -51.6186 ZZZZ=            -24.9976 XXXY=              3.6325
 XXXZ=              0.6502 YYYX=              5.2105 YYYZ=              1.4835 ZZZX=              0.3007
 ZZZY=              0.6222 XXYY=            -27.9707 XXZZ=            -26.8607 YYZZ=            -13.7399
 XXYZ=              1.1908 YYXZ=              1.1170 ZZXY=              0.3995
 N-N= 1.113776563425D+02 E-N=-2.281598260134D+03  KE= 8.209894981716D+02
                          Isotropic Fermi Contact Couplings
        Atom                 a.u.       MegaHertz       Gauss      10(-4) cm-1
     1  S(33)              0.10642      36.55120      13.04238      12.19217
     2  O(17)              0.02057     -12.47094      -4.44994      -4.15986
     3  O(17)              0.05183     -31.41668     -11.21025     -10.47948
     4  H(1)               0.00076       3.38247       1.20695       1.12827
 --------------------------------------------------------
       Center         ----  Spin Dipole Couplings  ----
                      3XX-RR        3YY-RR        3ZZ-RR
 --------------------------------------------------------
     1   Atom       -1.515287     -1.621466      3.136753
     2   Atom       -0.245687     -0.210184      0.455871
     3   Atom       -0.771984     -0.773095      1.545080
     4   Atom       -0.006316      0.019269     -0.012953
 --------------------------------------------------------
                        XY            XZ            YZ
 --------------------------------------------------------
     1   Atom        0.000714     -0.017801      0.242699
     2   Atom        0.004405      0.022166     -0.115438
     3   Atom        0.006668      0.101078      0.060444
     4   Atom        0.000654      0.000492      0.005469
 --------------------------------------------------------


 ---------------------------------------------------------------------------------
              Anisotropic Spin Dipole Couplings in Principal Axis System
 ---------------------------------------------------------------------------------

       Atom             a.u.   MegaHertz   Gauss  10(-4) cm-1        Axes

              Baa    -1.6338   -66.986   -23.902   -22.344 -0.0136  0.9986 -0.0509
     1 S(33)  Bbb    -1.5153   -62.127   -22.169   -20.723  0.9999  0.0138  0.0031
              Bcc     3.1492   129.113    46.071    43.067 -0.0038  0.0508  0.9987
 
              Baa    -0.2495    18.056     6.443     6.023  0.9272 -0.3640 -0.0887
     2 O(17)  Bbb    -0.2264    16.382     5.845     5.464  0.3735  0.9166  0.1429
              Bcc     0.4759   -34.438   -12.288   -11.487  0.0293 -0.1657  0.9857
 
              Baa    -0.7797    56.415    20.130    18.818  0.7768 -0.6295 -0.0174
     3 O(17)  Bbb    -0.7714    55.819    19.918    18.619  0.6282  0.7766 -0.0477
              Bcc     1.5511  -112.234   -40.048   -37.437  0.0435  0.0261  0.9987
 
              Baa    -0.0139    -7.403    -2.642    -2.469 -0.0502 -0.1616  0.9856
     4 H(1)   Bbb    -0.0063    -3.370    -1.203    -1.124  0.9984 -0.0352  0.0451
              Bcc     0.0202    10.773     3.844     3.594  0.0274  0.9862  0.1631
 

 ---------------------------------------------------------------------------------

 1\1\ CPUSERV-QCEXNOD15\SP\UwB97XD\6-311+G(3df)\H1O2S1(2)\VPEREZ\20-Aug
 -2025\0\\#sp wB97XD/6-311+G(3df)\\Optimizacion del hoso\\0,2\S,0,-0.13
 2843,-0.471008,0.017808\O,0,1.317632,0.247471,-0.04804\O,0,-1.196136,0
 .549938,-0.020037\H,0,1.081521,1.140345,0.285181\\Version=EM64L-G09Rev
 C.01\State=2-A\HF=-549.2186877\S2=0.755565\S2-1=0.\S2A=0.750021\RMSD=6
 .749e-09\Dipole=0.4738061,0.0031798,0.2174965\Quadrupole=-2.2740211,1.
 9726966,0.3013245,2.1593501,0.4627528,0.663412\PG=C01 [X(H1O2S1)]\\@


 A people that values its privileges above its principles soon loses both.
 -- Dwight D. Eisenhower
 Job cpu time:  0 days  0 hours  5 minutes 32.7 seconds.
 File lengths (MBytes):  RWF=     21 Int=      0 D2E=      0 Chk=      2 Scr=      1
 Normal termination of Gaussian 09 at Wed Aug 20 23:00:04 2025.
