 Entering Gaussian System, Link 0=g09
 Initial command:
 /soft/g09.c01/g09/l1.exe /scr/macias/389570.qcexmaster_vib1_-0.05/Gau-15257.inp -scrdir=/scr/macias/389570.qcexmaster_vib1_-0.05/
 Entering Link 1 = /soft/g09.c01/g09/l1.exe PID=     15258.
  
 Copyright (c) 1988,1990,1992,1993,1995,1998,2003,2009,2011,
            Gaussian, Inc.  All Rights Reserved.
  
 This is part of the Gaussian(R) 09 program.  It is based on
 the Gaussian(R) 03 system (copyright 2003, Gaussian, Inc.),
 the Gaussian(R) 98 system (copyright 1998, Gaussian, Inc.),
 the Gaussian(R) 94 system (copyright 1995, Gaussian, Inc.),
 the Gaussian 92(TM) system (copyright 1992, Gaussian, Inc.),
 the Gaussian 90(TM) system (copyright 1990, Gaussian, Inc.),
 the Gaussian 88(TM) system (copyright 1988, Gaussian, Inc.),
 the Gaussian 86(TM) system (copyright 1986, Carnegie Mellon
 University), and the Gaussian 82(TM) system (copyright 1983,
 Carnegie Mellon University). Gaussian is a federally registered
 trademark of Gaussian, Inc.
  
 This software contains proprietary and confidential information,
 including trade secrets, belonging to Gaussian, Inc.
  
 This software is provided under written license and may be
 used, copied, transmitted, or stored only in accord with that
 written license.
  
 The following legend is applicable only to US Government
 contracts under FAR:
  
                    RESTRICTED RIGHTS LEGEND
  
 Use, reproduction and disclosure by the US Government is
 subject to restrictions as set forth in subparagraphs (a)
 and (c) of the Commercial Computer Software - Restricted
 Rights clause in FAR 52.227-19.
  
 Gaussian, Inc.
 340 Quinnipiac St., Bldg. 40, Wallingford CT 06492
  
  
 ---------------------------------------------------------------
 Warning -- This program may not be used in any manner that
 competes with the business of Gaussian, Inc. or will provide
 assistance to any competitor of Gaussian, Inc.  The licensee
 of this program is prohibited from giving any competitor of
 Gaussian, Inc. access to this program.  By using this program,
 the user acknowledges that Gaussian, Inc. is engaged in the
 business of creating and licensing software in the field of
 computational chemistry and represents and warrants to the
 licensee that it is not a competitor of Gaussian, Inc. and that
 it will not use this program in any manner prohibited above.
 ---------------------------------------------------------------
  

 Cite this work as:
 Gaussian 09, Revision C.01,
 M. J. Frisch, G. W. Trucks, H. B. Schlegel, G. E. Scuseria, 
 M. A. Robb, J. R. Cheeseman, G. Scalmani, V. Barone, B. Mennucci, 
 G. A. Petersson, H. Nakatsuji, M. Caricato, X. Li, H. P. Hratchian, 
 A. F. Izmaylov, J. Bloino, G. Zheng, J. L. Sonnenberg, M. Hada, 
 M. Ehara, K. Toyota, R. Fukuda, J. Hasegawa, M. Ishida, T. Nakajima, 
 Y. Honda, O. Kitao, H. Nakai, T. Vreven, J. A. Montgomery, Jr., 
 J. E. Peralta, F. Ogliaro, M. Bearpark, J. J. Heyd, E. Brothers, 
 K. N. Kudin, V. N. Staroverov, T. Keith, R. Kobayashi, J. Normand, 
 K. Raghavachari, A. Rendell, J. C. Burant, S. S. Iyengar, J. Tomasi, 
 M. Cossi, N. Rega, J. M. Millam, M. Klene, J. E. Knox, J. B. Cross, 
 V. Bakken, C. Adamo, J. Jaramillo, R. Gomperts, R. E. Stratmann, 
 O. Yazyev, A. J. Austin, R. Cammi, C. Pomelli, J. W. Ochterski, 
 R. L. Martin, K. Morokuma, V. G. Zakrzewski, G. A. Voth, 
 P. Salvador, J. J. Dannenberg, S. Dapprich, A. D. Daniels, 
 O. Farkas, J. B. Foresman, J. V. Ortiz, J. Cioslowski, 
 and D. J. Fox, Gaussian, Inc., Wallingford CT, 2010.
 
  
 -----  Compilado por  -----------------------------------------
  
  Servicio de Calculo | Servicio de Informatica U. de Valencia
     calculo@uv.es    |  E-46100 Burjassot (Valencia) SPAIN
  
 ---------------------------------------------------------------
  
 ******************************************
 Gaussian 09:  EM64L-G09RevC.01 23-Sep-2011
                21-Aug-2025 
 ******************************************
 %chk=opt_freq.chk
 %nproc=6
 Will use up to    6 processors via shared memory.
 %mem=20GB
 Default route:  CacheSize=131072
 -----------------------
 #sp wB97XD/6-311+G(3df)
 -----------------------
 1/4=131072,38=1/1;
 2/4=131072,12=2,17=6,18=5,40=1/2;
 3/4=131072,5=4,6=6,7=16,11=2,16=1,25=1,30=1,74=-58/1,2,3;
 4/4=131072/1;
 5/4=131072,5=2,38=5/2;
 6/4=131072,7=2,8=2,9=2,10=2,28=1/1;
 99/4=131072,5=1,9=1/99;
 ---------------------
 Optimizacion del hoso
 ---------------------
 Charge =  0 Multiplicity = 2
 Symbolic Z-Matrix:
 S                    -0.13884  -0.47501   0.01481 
 O                     1.31013   0.25647  -0.04104 
 O                    -1.18414   0.54644  -0.01804 
 H                     1.21102   1.18385   0.21468 
 
                          Input orientation:                          
 ---------------------------------------------------------------------
 Center     Atomic      Atomic             Coordinates (Angstroms)
 Number     Number       Type             X           Y           Z
 ---------------------------------------------------------------------
      1         16           0       -0.138843   -0.475008    0.014808
      2          8           0        1.310132    0.256471   -0.041040
      3          8           0       -1.184136    0.546438   -0.018037
      4          1           0        1.211021    1.183845    0.214681
 ---------------------------------------------------------------------
                    Distance matrix (angstroms):
                    1          2          3          4
     1  S    0.000000
     2  O    1.624103   0.000000
     3  O    1.461871   2.511172   0.000000
     4  H    2.147993   0.967077   2.489422   0.000000
 Stoichiometry    HO2S(2)
 Framework group  C1[X(HO2S)]
 Deg. of freedom     6
 Full point group                 C1      NOp   1
 Largest Abelian subgroup         C1      NOp   1
 Largest concise Abelian subgroup C1      NOp   1
                         Standard orientation:                         
 ---------------------------------------------------------------------
 Center     Atomic      Atomic             Coordinates (Angstroms)
 Number     Number       Type             X           Y           Z
 ---------------------------------------------------------------------
      1         16           0       -0.138800   -0.475256    0.013981
      2          8           0        1.310263    0.256326   -0.038122
      3          8           0       -1.184023    0.546310   -0.017340
      4          1           0        1.210870    1.183002    0.220007
 ---------------------------------------------------------------------
 Rotational constants (GHZ):     34.9468455      9.7025100      7.6114722
 Standard basis: 6-311+G(3df) (5D, 7F)
 There are   128 symmetry adapted basis functions of A   symmetry.
 Integral buffers will be    131072 words long.
 Raffenetti 2 integral format.
 Two-electron integral symmetry is turned on.
   128 basis functions,   193 primitive gaussians,   146 cartesian basis functions
    17 alpha electrons       16 beta electrons
       nuclear repulsion energy       111.5466521075 Hartrees.
 NAtoms=    4 NActive=    4 NUniq=    4 SFac= 1.00D+00 NAtFMM=   60 NAOKFM=F Big=F
 Nuclear repulsion after empirical dispersion term =      111.5464039113 Hartrees.
 One-electron integrals computed using PRISM.
 NBasis=   128 RedAO= T  NBF=   128
 NBsUse=   128 1.00D-06 NBFU=   128
 Harris functional with IExCor= 4639 diagonalized for initial guess.
 ExpMin= 4.05D-02 ExpMax= 9.34D+04 ExpMxC= 3.17D+03 IAcc=2 IRadAn=         4 AccDes= 0.00D+00
 HarFok:  IExCor= 4639 AccDes= 0.00D+00 IRadAn=         4 IDoV= 1
 ScaDFX=  1.000000  1.000000  1.000000  1.000000
 FoFCou: FMM=F IPFlag=           0 FMFlag=      100000 FMFlg1=           0
         NFxFlg=           0 DoJE=T BraDBF=F KetDBF=T FulRan=T
         Omega=  0.000000  0.000000  1.000000  0.000000  0.000000 ICntrl=     500 IOpCl=  0
         NMat0=    1 NMatS0=    1 NMatT0=    0 NMatD0=    1 NMtDS0=    0 NMtDT0=    0
         I1Cent=           4 NGrid=           0.
 Petite list used in FoFCou.
 Initial guess orbital symmetries:
 Alpha Orbitals:
       Occupied  (A) (A) (A) (A) (A) (A) (A) (A) (A) (A) (A) (A)
                 (A) (A) (A) (A) (A)
       Virtual   (A) (A) (A) (A) (A) (A) (A) (A) (A) (A) (A) (A)
                 (A) (A) (A) (A) (A) (A) (A) (A) (A) (A) (A) (A)
                 (A) (A) (A) (A) (A) (A) (A) (A) (A) (A) (A) (A)
                 (A) (A) (A) (A) (A) (A) (A) (A) (A) (A) (A) (A)
                 (A) (A) (A) (A) (A) (A) (A) (A) (A) (A) (A) (A)
                 (A) (A) (A) (A) (A) (A) (A) (A) (A) (A) (A) (A)
                 (A) (A) (A) (A) (A) (A) (A) (A) (A) (A) (A) (A)
                 (A) (A) (A) (A) (A) (A) (A) (A) (A) (A) (A) (A)
                 (A) (A) (A) (A) (A) (A) (A) (A) (A) (A) (A) (A)
                 (A) (A) (A)
 Beta  Orbitals:
       Occupied  (A) (A) (A) (A) (A) (A) (A) (A) (A) (A) (A) (A)
                 (A) (A) (A) (A)
       Virtual   (A) (A) (A) (A) (A) (A) (A) (A) (A) (A) (A) (A)
                 (A) (A) (A) (A) (A) (A) (A) (A) (A) (A) (A) (A)
                 (A) (A) (A) (A) (A) (A) (A) (A) (A) (A) (A) (A)
                 (A) (A) (A) (A) (A) (A) (A) (A) (A) (A) (A) (A)
                 (A) (A) (A) (A) (A) (A) (A) (A) (A) (A) (A) (A)
                 (A) (A) (A) (A) (A) (A) (A) (A) (A) (A) (A) (A)
                 (A) (A) (A) (A) (A) (A) (A) (A) (A) (A) (A) (A)
                 (A) (A) (A) (A) (A) (A) (A) (A) (A) (A) (A) (A)
                 (A) (A) (A) (A) (A) (A) (A) (A) (A) (A) (A) (A)
                 (A) (A) (A) (A)
 The electronic state of the initial guess is 2-A.
 Initial guess <Sx>= 0.0000 <Sy>= 0.0000 <Sz>= 0.5000 <S**2>= 0.7500 S= 0.5000
 Requested convergence on RMS density matrix=1.00D-08 within 128 cycles.
 Requested convergence on MAX density matrix=1.00D-06.
 Requested convergence on             energy=1.00D-06.
 No special actions if energy rises.
 FoFJK:  IHMeth= 1 ICntrl=     0 DoSepK=T KAlg= 1 I1Cent= 0 FoldK=F
 FoFJK:  IHMeth= 1 ICntrl=     0 DoSepK=T KAlg= 1 I1Cent= 0 FoldK=F
 FoFJK:  IHMeth= 1 ICntrl=     0 DoSepK=T KAlg= 1 I1Cent= 0 FoldK=F
 FoFJK:  IHMeth= 1 ICntrl=     0 DoSepK=T KAlg= 1 I1Cent= 0 FoldK=F
 FoFJK:  IHMeth= 1 ICntrl=     0 DoSepK=T KAlg= 1 I1Cent= 0 FoldK=F
 FoFJK:  IHMeth= 1 ICntrl=     0 DoSepK=T KAlg= 1 I1Cent= 0 FoldK=F
 FoFJK:  IHMeth= 1 ICntrl=     0 DoSepK=T KAlg= 1 I1Cent= 0 FoldK=F
 FoFJK:  IHMeth= 1 ICntrl=     0 DoSepK=T KAlg= 1 I1Cent= 0 FoldK=F
 FoFJK:  IHMeth= 1 ICntrl=     0 DoSepK=T KAlg= 1 I1Cent= 0 FoldK=F
 FoFJK:  IHMeth= 1 ICntrl=     0 DoSepK=T KAlg= 1 I1Cent= 0 FoldK=F
 FoFJK:  IHMeth= 1 ICntrl=     0 DoSepK=T KAlg= 1 I1Cent= 0 FoldK=F
 FoFJK:  IHMeth= 1 ICntrl=     0 DoSepK=T KAlg= 1 I1Cent= 0 FoldK=F
 FoFJK:  IHMeth= 1 ICntrl=     0 DoSepK=T KAlg= 1 I1Cent= 0 FoldK=F
 FoFJK:  IHMeth= 1 ICntrl=     0 DoSepK=T KAlg= 1 I1Cent= 0 FoldK=F
 FoFJK:  IHMeth= 1 ICntrl=     0 DoSepK=T KAlg= 1 I1Cent= 0 FoldK=F
 SCF Done:  E(UwB97XD) =  -549.221268844     A.U. after   15 cycles
             Convg  =    0.6092D-08             -V/T =  2.0016
 <Sx>= 0.0000 <Sy>= 0.0000 <Sz>= 0.5000 <S**2>= 0.7555 S= 0.5027
 <L.S>= 0.000000000000E+00
 Annihilation of the first spin contaminant:
 S**2 before annihilation     0.7555,   after     0.7500

 **********************************************************************

            Population analysis using the SCF density.

 **********************************************************************

 Orbital symmetries:
 Alpha Orbitals:
       Occupied  (A) (A) (A) (A) (A) (A) (A) (A) (A) (A) (A) (A)
                 (A) (A) (A) (A) (A)
       Virtual   (A) (A) (A) (A) (A) (A) (A) (A) (A) (A) (A) (A)
                 (A) (A) (A) (A) (A) (A) (A) (A) (A) (A) (A) (A)
                 (A) (A) (A) (A) (A) (A) (A) (A) (A) (A) (A) (A)
                 (A) (A) (A) (A) (A) (A) (A) (A) (A) (A) (A) (A)
                 (A) (A) (A) (A) (A) (A) (A) (A) (A) (A) (A) (A)
                 (A) (A) (A) (A) (A) (A) (A) (A) (A) (A) (A) (A)
                 (A) (A) (A) (A) (A) (A) (A) (A) (A) (A) (A) (A)
                 (A) (A) (A) (A) (A) (A) (A) (A) (A) (A) (A) (A)
                 (A) (A) (A) (A) (A) (A) (A) (A) (A) (A) (A) (A)
                 (A) (A) (A)
 Beta  Orbitals:
       Occupied  (A) (A) (A) (A) (A) (A) (A) (A) (A) (A) (A) (A)
                 (A) (A) (A) (A)
       Virtual   (A) (A) (A) (A) (A) (A) (A) (A) (A) (A) (A) (A)
                 (A) (A) (A) (A) (A) (A) (A) (A) (A) (A) (A) (A)
                 (A) (A) (A) (A) (A) (A) (A) (A) (A) (A) (A) (A)
                 (A) (A) (A) (A) (A) (A) (A) (A) (A) (A) (A) (A)
                 (A) (A) (A) (A) (A) (A) (A) (A) (A) (A) (A) (A)
                 (A) (A) (A) (A) (A) (A) (A) (A) (A) (A) (A) (A)
                 (A) (A) (A) (A) (A) (A) (A) (A) (A) (A) (A) (A)
                 (A) (A) (A) (A) (A) (A) (A) (A) (A) (A) (A) (A)
                 (A) (A) (A) (A) (A) (A) (A) (A) (A) (A) (A) (A)
                 (A) (A) (A) (A)
 The electronic state is 2-A.
 Alpha  occ. eigenvalues --  -89.14915 -19.31818 -19.28315  -8.17668  -6.12600
 Alpha  occ. eigenvalues --   -6.12361  -6.12005  -1.22501  -1.14950  -0.80055
 Alpha  occ. eigenvalues --   -0.63254  -0.57395  -0.56640  -0.50489  -0.47276
 Alpha  occ. eigenvalues --   -0.42503  -0.30857
 Alpha virt. eigenvalues --    0.05016   0.06763   0.07594   0.09381   0.11746
 Alpha virt. eigenvalues --    0.13307   0.19093   0.22534   0.24504   0.24944
 Alpha virt. eigenvalues --    0.26478   0.28032   0.30302   0.32468   0.32919
 Alpha virt. eigenvalues --    0.35535   0.36594   0.37876   0.39109   0.40347
 Alpha virt. eigenvalues --    0.41205   0.50974   0.56596   0.68479   0.78146
 Alpha virt. eigenvalues --    0.80720   0.87058   0.87894   0.94069   0.96200
 Alpha virt. eigenvalues --    0.96859   0.97431   1.00120   1.02352   1.05370
 Alpha virt. eigenvalues --    1.09099   1.10131   1.12780   1.13996   1.17348
 Alpha virt. eigenvalues --    1.22166   1.28836   1.33381   1.38180   1.40226
 Alpha virt. eigenvalues --    1.43138   1.66849   1.68174   1.74652   1.80667
 Alpha virt. eigenvalues --    1.92552   2.01921   2.08363   2.08794   2.13017
 Alpha virt. eigenvalues --    2.20260   2.31202   2.36477   2.45282   3.37038
 Alpha virt. eigenvalues --    3.42127   3.45189   3.47673   3.49888   3.55547
 Alpha virt. eigenvalues --    3.56615   3.63623   3.70432   3.71830   4.53268
 Alpha virt. eigenvalues --    4.57199   4.61516   4.70984   4.91000   4.98500
 Alpha virt. eigenvalues --    5.03237   5.03799   5.04369   5.06774   5.09164
 Alpha virt. eigenvalues --    5.09847   5.11255   5.16680   5.24231   5.24852
 Alpha virt. eigenvalues --    5.41987   5.46855   5.53796   5.57464   5.67084
 Alpha virt. eigenvalues --    5.71950   5.85252   6.00228   6.58773   8.77590
 Alpha virt. eigenvalues --   14.32137  14.35622  14.37209  14.39177  14.41239
 Alpha virt. eigenvalues --   14.45542  14.46907  14.49262  14.62511  14.70897
 Alpha virt. eigenvalues --   17.36162  17.61751  17.90059  50.02599  50.11102
 Alpha virt. eigenvalues --  189.82356
  Beta  occ. eigenvalues --  -89.14529 -19.31567 -19.27437  -8.17324  -6.12371
  Beta  occ. eigenvalues --   -6.11796  -6.11120  -1.21367  -1.13478  -0.77786
  Beta  occ. eigenvalues --   -0.61952  -0.56625  -0.53072  -0.48659  -0.43425
  Beta  occ. eigenvalues --   -0.41301
  Beta virt. eigenvalues --   -0.03803   0.05485   0.07109   0.08049   0.09982
  Beta virt. eigenvalues --    0.12719   0.14004   0.19393   0.22769   0.24842
  Beta virt. eigenvalues --    0.25119   0.26983   0.28408   0.30568   0.32625
  Beta virt. eigenvalues --    0.34099   0.35790   0.37073   0.38615   0.40511
  Beta virt. eigenvalues --    0.41006   0.41715   0.51575   0.56796   0.68988
  Beta virt. eigenvalues --    0.78693   0.81053   0.87467   0.88750   0.94687
  Beta virt. eigenvalues --    0.96559   0.97731   0.98529   1.01004   1.03101
  Beta virt. eigenvalues --    1.06144   1.09995   1.12111   1.13214   1.14382
  Beta virt. eigenvalues --    1.18178   1.23467   1.29295   1.34774   1.38974
  Beta virt. eigenvalues --    1.40582   1.43490   1.69949   1.70169   1.76283
  Beta virt. eigenvalues --    1.82236   1.93325   2.03343   2.09051   2.11142
  Beta virt. eigenvalues --    2.13402   2.20719   2.31683   2.37401   2.45757
  Beta virt. eigenvalues --    3.37956   3.43584   3.47369   3.48826   3.51300
  Beta virt. eigenvalues --    3.57023   3.58225   3.64328   3.71447   3.72338
  Beta virt. eigenvalues --    4.53810   4.57354   4.62385   4.71467   4.91585
  Beta virt. eigenvalues --    4.99080   5.03925   5.04791   5.04977   5.08061
  Beta virt. eigenvalues --    5.11732   5.12790   5.13304   5.17507   5.25166
  Beta virt. eigenvalues --    5.26144   5.42593   5.47373   5.54584   5.58226
  Beta virt. eigenvalues --    5.67929   5.72529   5.86932   6.00733   6.59181
  Beta virt. eigenvalues --    8.77951  14.33461  14.37900  14.40319  14.41117
  Beta virt. eigenvalues --   14.43558  14.47397  14.49208  14.50580  14.63108
  Beta virt. eigenvalues --   14.72903  17.37558  17.62042  17.90380  50.02837
  Beta virt. eigenvalues --   50.11880 189.82661
          Condensed to atoms (all electrons):
              1          2          3          4
     1  S   15.358200  -0.015688   0.139178   0.011155
     2  O   -0.015688   8.419274   0.005640   0.209159
     3  O    0.139178   0.005640   8.239013  -0.000442
     4  H    0.011155   0.209159  -0.000442   0.285506
 Mulliken atomic charges:
              1
     1  S    0.507155
     2  O   -0.618386
     3  O   -0.383390
     4  H    0.494621
 Sum of Mulliken atomic charges =   0.00000
 Mulliken charges with hydrogens summed into heavy atoms:
              1
     1  S    0.507155
     2  O   -0.123765
     3  O   -0.383390
 Sum of Mulliken charges with hydrogens summed into heavy atoms =   0.00000
          Atomic-Atomic Spin Densities.
              1          2          3          4
     1  S    0.946727  -0.107036  -0.198051   0.000607
     2  O   -0.107036   0.153042   0.019635  -0.003996
     3  O   -0.198051   0.019635   0.475345  -0.000848
     4  H    0.000607  -0.003996  -0.000848   0.004262
 Mulliken atomic spin densities:
              1
     1  S    0.642247
     2  O    0.061645
     3  O    0.296081
     4  H    0.000026
 Sum of Mulliken atomic spin densities =   1.00000
 Electronic spatial extent (au):  <R**2>=            176.9873
 Charge=              0.0000 electrons
 Dipole moment (field-independent basis, Debye):
    X=              1.2742    Y=              0.0984    Z=              0.4566  Tot=              1.3571
 Quadrupole moment (field-independent basis, Debye-Ang):
   XX=            -26.6583   YY=            -21.0018   ZZ=            -23.6447
   XY=              3.3888   XZ=              0.5820   YZ=              0.7269
 Traceless Quadrupole moment (field-independent basis, Debye-Ang):
   XX=             -2.8901   YY=              2.7665   ZZ=              0.1236
   XY=              3.3888   XZ=              0.5820   YZ=              0.7269
 Octapole moment (field-independent basis, Debye-Ang**2):
  XXX=              1.4377  YYY=              5.3471  ZZZ=             -0.0263  XYY=              4.6230
  XXY=              1.0333  XXZ=              0.7052  XZZ=              0.0833  YZZ=              1.1677
  YYZ=              0.8562  XYZ=              0.8660
 Hexadecapole moment (field-independent basis, Debye-Ang**3):
 XXXX=           -140.7056 YYYY=            -51.5639 ZZZZ=            -24.8842 XXXY=              5.9506
 XXXZ=              0.9772 YYYX=              6.3529 YYYZ=              1.2269 ZZZX=              0.3075
 ZZZY=              0.4964 XXYY=            -26.5459 XXZZ=            -26.8588 YYZZ=            -13.9116
 XXYZ=              1.1893 YYXZ=              1.0444 ZZXY=              0.3989
 N-N= 1.115464039113D+02 E-N=-2.282246610387D+03  KE= 8.210409675077D+02
                          Isotropic Fermi Contact Couplings
        Atom                 a.u.       MegaHertz       Gauss      10(-4) cm-1
     1  S(33)              0.10357      35.57464      12.69391      11.86642
     2  O(17)              0.02010     -12.18739      -4.34876      -4.06528
     3  O(17)              0.05187     -31.44394     -11.21998     -10.48857
     4  H(1)              -0.00010      -0.44450      -0.15861      -0.14827
 --------------------------------------------------------
       Center         ----  Spin Dipole Couplings  ----
                      3XX-RR        3YY-RR        3ZZ-RR
 --------------------------------------------------------
     1   Atom       -1.510314     -1.620733      3.131046
     2   Atom       -0.245909     -0.214761      0.460669
     3   Atom       -0.768208     -0.769687      1.537895
     4   Atom       -0.009612      0.020908     -0.011296
 --------------------------------------------------------
                        XY            XZ            YZ
 --------------------------------------------------------
     1   Atom       -0.002614     -0.048409      0.154461
     2   Atom        0.008145      0.012501     -0.098815
     3   Atom        0.005079      0.069883      0.034066
     4   Atom        0.004607      0.001073      0.004136
 --------------------------------------------------------


 ---------------------------------------------------------------------------------
              Anisotropic Spin Dipole Couplings in Principal Axis System
 ---------------------------------------------------------------------------------

       Atom             a.u.   MegaHertz   Gauss  10(-4) cm-1        Axes

              Baa    -1.6258   -66.655   -23.784   -22.234  0.0091  0.9994 -0.0324
     1 S(33)  Bbb    -1.5108   -61.942   -22.102   -20.662  0.9999 -0.0087  0.0107
              Bcc     3.1366   128.596    45.886    42.895 -0.0104  0.0325  0.9994
 
              Baa    -0.2506    18.130     6.469     6.047  0.9102 -0.4077 -0.0726
     2 O(17)  Bbb    -0.2244    16.241     5.795     5.417  0.4138  0.9021  0.1226
              Bcc     0.4750   -34.371   -12.264   -11.465  0.0156 -0.1416  0.9898
 
              Baa    -0.7743    56.028    19.992    18.689  0.7128 -0.7013 -0.0112
     3 O(17)  Bbb    -0.7662    55.443    19.783    18.494  0.7007  0.7127 -0.0318
              Bcc     1.5405  -111.471   -39.776   -37.183  0.0303  0.0148  0.9994
 
              Baa    -0.0120    -6.381    -2.277    -2.128 -0.2774 -0.0816  0.9573
     4 H(1)   Bbb    -0.0102    -5.426    -1.936    -1.810  0.9495 -0.1754  0.2602
              Bcc     0.0221    11.806     4.213     3.938  0.1467  0.9811  0.1261
 

 ---------------------------------------------------------------------------------

 1\1\ CPUSERV-QCEXNOD07\SP\UwB97XD\6-311+G(3df)\H1O2S1(2)\ROOT\21-Aug-2
 025\0\\#sp wB97XD/6-311+G(3df)\\Optimizacion del hoso\\0,2\S,0,-0.1388
 43,-0.475008,0.014808\O,0,1.310132,0.256471,-0.04104\O,0,-1.184136,0.5
 46438,-0.018037\H,0,1.211021,1.183845,0.214681\\Version=EM64L-G09RevC.
 01\State=2-A\HF=-549.2212688\S2=0.755464\S2-1=0.\S2A=0.750021\RMSD=6.0
 92e-09\Dipole=0.5015346,0.0392271,0.1789216\Quadrupole=-2.1478135,2.05
 99045,0.087909,2.5212029,0.4285371,0.5320576\PG=C01 [X(H1O2S1)]\\@


 ERROR IS A HARDY PLANT... IT FLOURISHETH IN EVERY SOIL.
            MARTIN FARQUHAR TUPPER
 Job cpu time:  0 days  0 hours  3 minutes 47.8 seconds.
 File lengths (MBytes):  RWF=     21 Int=      0 D2E=      0 Chk=      2 Scr=      1
 Normal termination of Gaussian 09 at Thu Aug 21 00:14:13 2025.
