 Entering Gaussian System, Link 0=g09
 Initial command:
 /soft/g09.c01/g09/l1.exe /scr/macias/389558.qcexmaster_vib6_-0.20/Gau-31089.inp -scrdir=/scr/macias/389558.qcexmaster_vib6_-0.20/
 Entering Link 1 = /soft/g09.c01/g09/l1.exe PID=     31091.
  
 Copyright (c) 1988,1990,1992,1993,1995,1998,2003,2009,2011,
            Gaussian, Inc.  All Rights Reserved.
  
 This is part of the Gaussian(R) 09 program.  It is based on
 the Gaussian(R) 03 system (copyright 2003, Gaussian, Inc.),
 the Gaussian(R) 98 system (copyright 1998, Gaussian, Inc.),
 the Gaussian(R) 94 system (copyright 1995, Gaussian, Inc.),
 the Gaussian 92(TM) system (copyright 1992, Gaussian, Inc.),
 the Gaussian 90(TM) system (copyright 1990, Gaussian, Inc.),
 the Gaussian 88(TM) system (copyright 1988, Gaussian, Inc.),
 the Gaussian 86(TM) system (copyright 1986, Carnegie Mellon
 University), and the Gaussian 82(TM) system (copyright 1983,
 Carnegie Mellon University). Gaussian is a federally registered
 trademark of Gaussian, Inc.
  
 This software contains proprietary and confidential information,
 including trade secrets, belonging to Gaussian, Inc.
  
 This software is provided under written license and may be
 used, copied, transmitted, or stored only in accord with that
 written license.
  
 The following legend is applicable only to US Government
 contracts under FAR:
  
                    RESTRICTED RIGHTS LEGEND
  
 Use, reproduction and disclosure by the US Government is
 subject to restrictions as set forth in subparagraphs (a)
 and (c) of the Commercial Computer Software - Restricted
 Rights clause in FAR 52.227-19.
  
 Gaussian, Inc.
 340 Quinnipiac St., Bldg. 40, Wallingford CT 06492
  
  
 ---------------------------------------------------------------
 Warning -- This program may not be used in any manner that
 competes with the business of Gaussian, Inc. or will provide
 assistance to any competitor of Gaussian, Inc.  The licensee
 of this program is prohibited from giving any competitor of
 Gaussian, Inc. access to this program.  By using this program,
 the user acknowledges that Gaussian, Inc. is engaged in the
 business of creating and licensing software in the field of
 computational chemistry and represents and warrants to the
 licensee that it is not a competitor of Gaussian, Inc. and that
 it will not use this program in any manner prohibited above.
 ---------------------------------------------------------------
  

 Cite this work as:
 Gaussian 09, Revision C.01,
 M. J. Frisch, G. W. Trucks, H. B. Schlegel, G. E. Scuseria, 
 M. A. Robb, J. R. Cheeseman, G. Scalmani, V. Barone, B. Mennucci, 
 G. A. Petersson, H. Nakatsuji, M. Caricato, X. Li, H. P. Hratchian, 
 A. F. Izmaylov, J. Bloino, G. Zheng, J. L. Sonnenberg, M. Hada, 
 M. Ehara, K. Toyota, R. Fukuda, J. Hasegawa, M. Ishida, T. Nakajima, 
 Y. Honda, O. Kitao, H. Nakai, T. Vreven, J. A. Montgomery, Jr., 
 J. E. Peralta, F. Ogliaro, M. Bearpark, J. J. Heyd, E. Brothers, 
 K. N. Kudin, V. N. Staroverov, T. Keith, R. Kobayashi, J. Normand, 
 K. Raghavachari, A. Rendell, J. C. Burant, S. S. Iyengar, J. Tomasi, 
 M. Cossi, N. Rega, J. M. Millam, M. Klene, J. E. Knox, J. B. Cross, 
 V. Bakken, C. Adamo, J. Jaramillo, R. Gomperts, R. E. Stratmann, 
 O. Yazyev, A. J. Austin, R. Cammi, C. Pomelli, J. W. Ochterski, 
 R. L. Martin, K. Morokuma, V. G. Zakrzewski, G. A. Voth, 
 P. Salvador, J. J. Dannenberg, S. Dapprich, A. D. Daniels, 
 O. Farkas, J. B. Foresman, J. V. Ortiz, J. Cioslowski, 
 and D. J. Fox, Gaussian, Inc., Wallingford CT, 2010.
 
  
 -----  Compilado por  -----------------------------------------
  
  Servicio de Calculo | Servicio de Informatica U. de Valencia
     calculo@uv.es    |  E-46100 Burjassot (Valencia) SPAIN
  
 ---------------------------------------------------------------
  
 ******************************************
 Gaussian 09:  EM64L-G09RevC.01 23-Sep-2011
                21-Aug-2025 
 ******************************************
 %chk=opt_freq.chk
 %nproc=6
 Will use up to    6 processors via shared memory.
 %mem=20GB
 Default route:  CacheSize=131072
 -----------------------
 #sp wB97XD/6-311+G(3df)
 -----------------------
 1/4=131072,38=1/1;
 2/4=131072,12=2,17=6,18=5,40=1/2;
 3/4=131072,5=4,6=6,7=16,11=2,16=1,25=1,30=1,74=-58/1,2,3;
 4/4=131072/1;
 5/4=131072,5=2,38=5/2;
 6/4=131072,7=2,8=2,9=2,10=2,28=1/1;
 99/4=131072,5=1,9=1/99;
 ---------------------
 Optimizacion del hoso
 ---------------------
 Charge =  0 Multiplicity = 2
 Symbolic Z-Matrix:
 S                    -0.13884  -0.47401   0.01631 
 O                     1.31013   0.24447  -0.04904 
 O                    -1.18564   0.54544  -0.02004 
 H                     1.21152   1.35885   0.32168 
 
                          Input orientation:                          
 ---------------------------------------------------------------------
 Center     Atomic      Atomic             Coordinates (Angstroms)
 Number     Number       Type             X           Y           Z
 ---------------------------------------------------------------------
      1         16           0       -0.138843   -0.474008    0.016308
      2          8           0        1.310132    0.244471   -0.049040
      3          8           0       -1.185636    0.545438   -0.020037
      4          1           0        1.211521    1.358845    0.321681
 ---------------------------------------------------------------------
                    Distance matrix (angstroms):
                    1          2          3          4
     1  S    0.000000
     2  O    1.618645   0.000000
     3  O    1.461632   2.514017   0.000000
     4  H    2.296973   1.178553   2.554362   0.000000
 Stoichiometry    HO2S(2)
 Framework group  C1[X(HO2S)]
 Deg. of freedom     6
 Full point group                 C1      NOp   1
 Largest Abelian subgroup         C1      NOp   1
 Largest concise Abelian subgroup C1      NOp   1
                         Standard orientation:                         
 ---------------------------------------------------------------------
 Center     Atomic      Atomic             Coordinates (Angstroms)
 Number     Number       Type             X           Y           Z
 ---------------------------------------------------------------------
      1         16           0       -0.140680   -0.475881    0.023124
      2          8           0        1.311639    0.234506   -0.055170
      3          8           0       -1.182627    0.547870   -0.028315
      4          1           0        1.218778    1.355091    0.297894
 ---------------------------------------------------------------------
 Rotational constants (GHZ):     34.0675839      9.6771093      7.5707040
 Standard basis: 6-311+G(3df) (5D, 7F)
 There are   128 symmetry adapted basis functions of A   symmetry.
 Integral buffers will be    131072 words long.
 Raffenetti 2 integral format.
 Two-electron integral symmetry is turned on.
   128 basis functions,   193 primitive gaussians,   146 cartesian basis functions
    17 alpha electrons       16 beta electrons
       nuclear repulsion energy       110.5952367703 Hartrees.
 NAtoms=    4 NActive=    4 NUniq=    4 SFac= 1.00D+00 NAtFMM=   60 NAOKFM=F Big=F
 Nuclear repulsion after empirical dispersion term =      110.5949596585 Hartrees.
 One-electron integrals computed using PRISM.
 NBasis=   128 RedAO= T  NBF=   128
 NBsUse=   128 1.00D-06 NBFU=   128
 Harris functional with IExCor= 4639 diagonalized for initial guess.
 ExpMin= 4.05D-02 ExpMax= 9.34D+04 ExpMxC= 3.17D+03 IAcc=2 IRadAn=         4 AccDes= 0.00D+00
 HarFok:  IExCor= 4639 AccDes= 0.00D+00 IRadAn=         4 IDoV= 1
 ScaDFX=  1.000000  1.000000  1.000000  1.000000
 FoFCou: FMM=F IPFlag=           0 FMFlag=      100000 FMFlg1=           0
         NFxFlg=           0 DoJE=T BraDBF=F KetDBF=T FulRan=T
         Omega=  0.000000  0.000000  1.000000  0.000000  0.000000 ICntrl=     500 IOpCl=  0
         NMat0=    1 NMatS0=    1 NMatT0=    0 NMatD0=    1 NMtDS0=    0 NMtDT0=    0
         I1Cent=           4 NGrid=           0.
 Petite list used in FoFCou.
 Initial guess orbital symmetries:
 Alpha Orbitals:
       Occupied  (A) (A) (A) (A) (A) (A) (A) (A) (A) (A) (A) (A)
                 (A) (A) (A) (A) (A)
       Virtual   (A) (A) (A) (A) (A) (A) (A) (A) (A) (A) (A) (A)
                 (A) (A) (A) (A) (A) (A) (A) (A) (A) (A) (A) (A)
                 (A) (A) (A) (A) (A) (A) (A) (A) (A) (A) (A) (A)
                 (A) (A) (A) (A) (A) (A) (A) (A) (A) (A) (A) (A)
                 (A) (A) (A) (A) (A) (A) (A) (A) (A) (A) (A) (A)
                 (A) (A) (A) (A) (A) (A) (A) (A) (A) (A) (A) (A)
                 (A) (A) (A) (A) (A) (A) (A) (A) (A) (A) (A) (A)
                 (A) (A) (A) (A) (A) (A) (A) (A) (A) (A) (A) (A)
                 (A) (A) (A) (A) (A) (A) (A) (A) (A) (A) (A) (A)
                 (A) (A) (A)
 Beta  Orbitals:
       Occupied  (A) (A) (A) (A) (A) (A) (A) (A) (A) (A) (A) (A)
                 (A) (A) (A) (A)
       Virtual   (A) (A) (A) (A) (A) (A) (A) (A) (A) (A) (A) (A)
                 (A) (A) (A) (A) (A) (A) (A) (A) (A) (A) (A) (A)
                 (A) (A) (A) (A) (A) (A) (A) (A) (A) (A) (A) (A)
                 (A) (A) (A) (A) (A) (A) (A) (A) (A) (A) (A) (A)
                 (A) (A) (A) (A) (A) (A) (A) (A) (A) (A) (A) (A)
                 (A) (A) (A) (A) (A) (A) (A) (A) (A) (A) (A) (A)
                 (A) (A) (A) (A) (A) (A) (A) (A) (A) (A) (A) (A)
                 (A) (A) (A) (A) (A) (A) (A) (A) (A) (A) (A) (A)
                 (A) (A) (A) (A) (A) (A) (A) (A) (A) (A) (A) (A)
                 (A) (A) (A) (A)
 The electronic state of the initial guess is 2-A.
 Initial guess <Sx>= 0.0000 <Sy>= 0.0000 <Sz>= 0.5000 <S**2>= 0.7500 S= 0.5000
 Requested convergence on RMS density matrix=1.00D-08 within 128 cycles.
 Requested convergence on MAX density matrix=1.00D-06.
 Requested convergence on             energy=1.00D-06.
 No special actions if energy rises.
 FoFJK:  IHMeth= 1 ICntrl=     0 DoSepK=T KAlg= 1 I1Cent= 0 FoldK=F
 FoFJK:  IHMeth= 1 ICntrl=     0 DoSepK=T KAlg= 1 I1Cent= 0 FoldK=F
 FoFJK:  IHMeth= 1 ICntrl=     0 DoSepK=T KAlg= 1 I1Cent= 0 FoldK=F
 FoFJK:  IHMeth= 1 ICntrl=     0 DoSepK=T KAlg= 1 I1Cent= 0 FoldK=F
 FoFJK:  IHMeth= 1 ICntrl=     0 DoSepK=T KAlg= 1 I1Cent= 0 FoldK=F
 FoFJK:  IHMeth= 1 ICntrl=     0 DoSepK=T KAlg= 1 I1Cent= 0 FoldK=F
 FoFJK:  IHMeth= 1 ICntrl=     0 DoSepK=T KAlg= 1 I1Cent= 0 FoldK=F
 FoFJK:  IHMeth= 1 ICntrl=     0 DoSepK=T KAlg= 1 I1Cent= 0 FoldK=F
 FoFJK:  IHMeth= 1 ICntrl=     0 DoSepK=T KAlg= 1 I1Cent= 0 FoldK=F
 FoFJK:  IHMeth= 1 ICntrl=     0 DoSepK=T KAlg= 1 I1Cent= 0 FoldK=F
 FoFJK:  IHMeth= 1 ICntrl=     0 DoSepK=T KAlg= 1 I1Cent= 0 FoldK=F
 FoFJK:  IHMeth= 1 ICntrl=     0 DoSepK=T KAlg= 1 I1Cent= 0 FoldK=F
 FoFJK:  IHMeth= 1 ICntrl=     0 DoSepK=T KAlg= 1 I1Cent= 0 FoldK=F
 FoFJK:  IHMeth= 1 ICntrl=     0 DoSepK=T KAlg= 1 I1Cent= 0 FoldK=F
 FoFJK:  IHMeth= 1 ICntrl=     0 DoSepK=T KAlg= 1 I1Cent= 0 FoldK=F
 SCF Done:  E(UwB97XD) =  -549.194803715     A.U. after   15 cycles
             Convg  =    0.9070D-08             -V/T =  2.0021
 <Sx>= 0.0000 <Sy>= 0.0000 <Sz>= 0.5000 <S**2>= 0.7554 S= 0.5027
 <L.S>= 0.000000000000E+00
 Annihilation of the first spin contaminant:
 S**2 before annihilation     0.7554,   after     0.7500

 **********************************************************************

            Population analysis using the SCF density.

 **********************************************************************

 Orbital symmetries:
 Alpha Orbitals:
       Occupied  (A) (A) (A) (A) (A) (A) (A) (A) (A) (A) (A) (A)
                 (A) (A) (A) (A) (A)
       Virtual   (A) (A) (A) (A) (A) (A) (A) (A) (A) (A) (A) (A)
                 (A) (A) (A) (A) (A) (A) (A) (A) (A) (A) (A) (A)
                 (A) (A) (A) (A) (A) (A) (A) (A) (A) (A) (A) (A)
                 (A) (A) (A) (A) (A) (A) (A) (A) (A) (A) (A) (A)
                 (A) (A) (A) (A) (A) (A) (A) (A) (A) (A) (A) (A)
                 (A) (A) (A) (A) (A) (A) (A) (A) (A) (A) (A) (A)
                 (A) (A) (A) (A) (A) (A) (A) (A) (A) (A) (A) (A)
                 (A) (A) (A) (A) (A) (A) (A) (A) (A) (A) (A) (A)
                 (A) (A) (A) (A) (A) (A) (A) (A) (A) (A) (A) (A)
                 (A) (A) (A)
 Beta  Orbitals:
       Occupied  (A) (A) (A) (A) (A) (A) (A) (A) (A) (A) (A) (A)
                 (A) (A) (A) (A)
       Virtual   (A) (A) (A) (A) (A) (A) (A) (A) (A) (A) (A) (A)
                 (A) (A) (A) (A) (A) (A) (A) (A) (A) (A) (A) (A)
                 (A) (A) (A) (A) (A) (A) (A) (A) (A) (A) (A) (A)
                 (A) (A) (A) (A) (A) (A) (A) (A) (A) (A) (A) (A)
                 (A) (A) (A) (A) (A) (A) (A) (A) (A) (A) (A) (A)
                 (A) (A) (A) (A) (A) (A) (A) (A) (A) (A) (A) (A)
                 (A) (A) (A) (A) (A) (A) (A) (A) (A) (A) (A) (A)
                 (A) (A) (A) (A) (A) (A) (A) (A) (A) (A) (A) (A)
                 (A) (A) (A) (A) (A) (A) (A) (A) (A) (A) (A) (A)
                 (A) (A) (A) (A)
 The electronic state is 2-A.
 Alpha  occ. eigenvalues --  -89.14548 -19.32866 -19.27986  -8.17298  -6.12219
 Alpha  occ. eigenvalues --   -6.12001  -6.11641  -1.21041  -1.13073  -0.77600
 Alpha  occ. eigenvalues --   -0.61165  -0.56938  -0.56136  -0.49705  -0.46551
 Alpha  occ. eigenvalues --   -0.42112  -0.30456
 Alpha virt. eigenvalues --    0.02277   0.07034   0.07812   0.09299   0.10108
 Alpha virt. eigenvalues --    0.12784   0.17006   0.22103   0.24518   0.25225
 Alpha virt. eigenvalues --    0.26602   0.28141   0.30295   0.32526   0.33119
 Alpha virt. eigenvalues --    0.35421   0.36435   0.37857   0.39175   0.40476
 Alpha virt. eigenvalues --    0.41226   0.47818   0.51242   0.68727   0.78808
 Alpha virt. eigenvalues --    0.81781   0.87540   0.88326   0.94010   0.96478
 Alpha virt. eigenvalues --    0.97514   0.98099   1.00666   1.02452   1.05981
 Alpha virt. eigenvalues --    1.09391   1.10395   1.12164   1.14330   1.17854
 Alpha virt. eigenvalues --    1.22962   1.29353   1.33836   1.37766   1.38767
 Alpha virt. eigenvalues --    1.41424   1.67119   1.68656   1.74784   1.81015
 Alpha virt. eigenvalues --    1.92895   2.02439   2.09133   2.09198   2.14937
 Alpha virt. eigenvalues --    2.21471   2.32705   2.37241   2.46335   3.38927
 Alpha virt. eigenvalues --    3.42902   3.45715   3.48190   3.50485   3.52335
 Alpha virt. eigenvalues --    3.56343   3.58574   3.68495   3.70908   4.53841
 Alpha virt. eigenvalues --    4.57855   4.61824   4.72299   4.91319   5.01940
 Alpha virt. eigenvalues --    5.03954   5.04317   5.05256   5.06017   5.09330
 Alpha virt. eigenvalues --    5.10145   5.10539   5.17871   5.19901   5.25135
 Alpha virt. eigenvalues --    5.26808   5.46408   5.52524   5.55689   5.62766
 Alpha virt. eigenvalues --    5.68703   5.85613   5.98915   6.59447   8.78626
 Alpha virt. eigenvalues --   14.32671  14.35826  14.37459  14.39203  14.40351
 Alpha virt. eigenvalues --   14.42667  14.46282  14.48739  14.62103  14.71268
 Alpha virt. eigenvalues --   17.36553  17.61925  17.90658  50.01678  50.11443
 Alpha virt. eigenvalues --  189.83095
  Beta  occ. eigenvalues --  -89.14163 -19.32608 -19.27123  -8.16954  -6.11990
  Beta  occ. eigenvalues --   -6.11431  -6.10764  -1.19698  -1.11788  -0.75067
  Beta  occ. eigenvalues --   -0.60021  -0.56104  -0.52672  -0.47786  -0.42885
  Beta  occ. eigenvalues --   -0.40933
  Beta virt. eigenvalues --   -0.03572   0.02641   0.07374   0.08212   0.09958
  Beta virt. eigenvalues --    0.11081   0.13283   0.17771   0.22254   0.24861
  Beta virt. eigenvalues --    0.25386   0.27133   0.28501   0.30594   0.32653
  Beta virt. eigenvalues --    0.34226   0.35737   0.36697   0.38789   0.40535
  Beta virt. eigenvalues --    0.41411   0.41497   0.48065   0.51826   0.69240
  Beta virt. eigenvalues --    0.79337   0.82100   0.88176   0.89024   0.94619
  Beta virt. eigenvalues --    0.96911   0.98385   0.99044   1.01843   1.02950
  Beta virt. eigenvalues --    1.06740   1.10377   1.12290   1.12574   1.14728
  Beta virt. eigenvalues --    1.18734   1.24252   1.29796   1.35090   1.38368
  Beta virt. eigenvalues --    1.39465   1.41749   1.70293   1.70593   1.76408
  Beta virt. eigenvalues --    1.82597   1.93693   2.03863   2.09855   2.11482
  Beta virt. eigenvalues --    2.15363   2.21991   2.33220   2.38198   2.46677
  Beta virt. eigenvalues --    3.39889   3.44505   3.47873   3.49185   3.51878
  Beta virt. eigenvalues --    3.53058   3.58197   3.59562   3.69007   3.72084
  Beta virt. eigenvalues --    4.54384   4.58025   4.62681   4.72785   4.91902
  Beta virt. eigenvalues --    5.02676   5.04716   5.05091   5.05941   5.06672
  Beta virt. eigenvalues --    5.12017   5.12181   5.13590   5.18493   5.20959
  Beta virt. eigenvalues --    5.26167   5.27770   5.46930   5.53080   5.56503
  Beta virt. eigenvalues --    5.63286   5.69873   5.87280   5.99445   6.59856
  Beta virt. eigenvalues --    8.78982  14.33973  14.38086  14.40209  14.41148
  Beta virt. eigenvalues --   14.42290  14.44116  14.49339  14.50215  14.62815
  Beta virt. eigenvalues --   14.73230  17.37943  17.62216  17.90978  50.01925
  Beta virt. eigenvalues --   50.12209 189.83399
          Condensed to atoms (all electrons):
              1          2          3          4
     1  S   15.343174   0.016677   0.140696   0.013156
     2  O    0.016677   8.337646   0.006562   0.189471
     3  O    0.140696   0.006562   8.243624   0.001487
     4  H    0.013156   0.189471   0.001487   0.339456
 Mulliken atomic charges:
              1
     1  S    0.486297
     2  O   -0.550357
     3  O   -0.392370
     4  H    0.456430
 Sum of Mulliken atomic charges =   0.00000
 Mulliken charges with hydrogens summed into heavy atoms:
              1
     1  S    0.486297
     2  O   -0.093927
     3  O   -0.392370
 Sum of Mulliken charges with hydrogens summed into heavy atoms =   0.00000
          Atomic-Atomic Spin Densities.
              1          2          3          4
     1  S    0.947039  -0.106458  -0.196379  -0.002972
     2  O   -0.106458   0.154097   0.019197  -0.004109
     3  O   -0.196379   0.019197   0.467811  -0.000051
     4  H   -0.002972  -0.004109  -0.000051   0.012597
 Mulliken atomic spin densities:
              1
     1  S    0.641230
     2  O    0.062727
     3  O    0.290579
     4  H    0.005465
 Sum of Mulliken atomic spin densities =   1.00000
 Electronic spatial extent (au):  <R**2>=            178.4131
 Charge=              0.0000 electrons
 Dipole moment (field-independent basis, Debye):
    X=              1.3817    Y=              0.3758    Z=              0.6121  Tot=              1.5573
 Quadrupole moment (field-independent basis, Debye-Ang):
   XX=            -26.7633   YY=            -20.4508   ZZ=            -23.7661
   XY=              3.7819   XZ=              0.7393   YZ=              1.0313
 Traceless Quadrupole moment (field-independent basis, Debye-Ang):
   XX=             -3.1032   YY=              3.2093   ZZ=             -0.1061
   XY=              3.7819   XZ=              0.7393   YZ=              1.0313
 Octapole moment (field-independent basis, Debye-Ang**2):
  XXX=              1.2158  YYY=              6.6808  ZZZ=             -0.1166  XYY=              5.4722
  XXY=              1.3889  XXZ=              0.8959  XZZ=              0.0152  YZZ=              1.1645
  YYZ=              1.3648  XYZ=              1.2180
 Hexadecapole moment (field-independent basis, Debye-Ang**3):
 XXXX=           -142.4507 YYYY=            -51.0011 ZZZZ=            -25.4764 XXXY=              6.1793
 XXXZ=              1.0890 YYYX=              8.0453 YYYZ=              2.0853 ZZZX=              0.3118
 ZZZY=              0.5926 XXYY=            -26.1242 XXZZ=            -27.1892 YYZZ=            -14.2276
 XXYZ=              1.6299 YYXZ=              1.6668 ZZXY=              0.4163
 N-N= 1.105949596585D+02 E-N=-2.279374191243D+03  KE= 8.206579363387D+02
                          Isotropic Fermi Contact Couplings
        Atom                 a.u.       MegaHertz       Gauss      10(-4) cm-1
     1  S(33)              0.10503      36.07404      12.87211      12.03300
     2  O(17)              0.02496     -15.13165      -5.39935      -5.04737
     3  O(17)              0.05100     -30.91676     -11.03187     -10.31272
     4  H(1)               0.00217       9.70719       3.46377       3.23797
 --------------------------------------------------------
       Center         ----  Spin Dipole Couplings  ----
                      3XX-RR        3YY-RR        3ZZ-RR
 --------------------------------------------------------
     1   Atom       -1.506150     -1.604519      3.110668
     2   Atom       -0.250451     -0.200360      0.450812
     3   Atom       -0.754978     -0.753580      1.508559
     4   Atom       -0.004923      0.014993     -0.010070
 --------------------------------------------------------
                        XY            XZ            YZ
 --------------------------------------------------------
     1   Atom       -0.002887     -0.065255      0.235059
     2   Atom        0.007600      0.021346     -0.153840
     3   Atom        0.005791      0.074719      0.040792
     4   Atom        0.005638      0.001144      0.004018
 --------------------------------------------------------


 ---------------------------------------------------------------------------------
              Anisotropic Spin Dipole Couplings in Principal Axis System
 ---------------------------------------------------------------------------------

       Atom             a.u.   MegaHertz   Gauss  10(-4) cm-1        Axes

              Baa    -1.6162   -66.263   -23.644   -22.103 -0.0033  0.9988 -0.0497
     1 S(33)  Bbb    -1.5071   -61.788   -22.048   -20.610  0.9999  0.0040  0.0139
              Bcc     3.1233   128.052    45.692    42.713 -0.0141  0.0497  0.9987
 
              Baa    -0.2574    18.627     6.647     6.213  0.8811 -0.4559 -0.1256
     2 O(17)  Bbb    -0.2284    16.527     5.897     5.513  0.4722  0.8628  0.1806
              Bcc     0.4858   -35.154   -12.544   -11.726  0.0260 -0.2184  0.9755
 
              Baa    -0.7606    55.036    19.638    18.358  0.8158 -0.5781 -0.0165
     3 O(17)  Bbb    -0.7512    54.354    19.395    18.131  0.5774  0.8158 -0.0338
              Bcc     1.5118  -109.390   -39.033   -36.489  0.0330  0.0181  0.9993
 
              Baa    -0.0107    -5.716    -2.040    -1.907 -0.0570 -0.1420  0.9882
     4 H(1)   Bbb    -0.0064    -3.418    -1.220    -1.140  0.9660 -0.2580  0.0187
              Bcc     0.0171     9.135     3.259     3.047  0.2523  0.9557  0.1518
 

 ---------------------------------------------------------------------------------

 1\1\ CPUSERV-QCEXNOD01\SP\UwB97XD\6-311+G(3df)\H1O2S1(2)\ROOT\21-Aug-2
 025\0\\#sp wB97XD/6-311+G(3df)\\Optimizacion del hoso\\0,2\S,0,-0.1388
 43,-0.474008,0.016308\O,0,1.310132,0.244471,-0.04904\O,0,-1.185636,0.5
 45438,-0.020037\H,0,1.211521,1.358845,0.321681\\Version=EM64L-G09RevC.
 01\State=2-A\HF=-549.1948037\S2=0.755448\S2-1=0.\S2A=0.750021\RMSD=9.0
 70e-09\Dipole=0.5426471,0.1465911,0.24374\Quadrupole=-2.3352047,2.3877
 351,-0.0525304,2.7792528,0.5878272,0.8115201\PG=C01 [X(H1O2S1)]\\@


 HEAVEN'S NET CASTS WIDE.
 THOUGH ITS MESHES ARE COARSE, NOTHING SLIPS THROUGH.

                                          -- LAO-TSU
 Job cpu time:  0 days  0 hours  3 minutes 13.3 seconds.
 File lengths (MBytes):  RWF=     21 Int=      0 D2E=      0 Chk=      2 Scr=      1
 Normal termination of Gaussian 09 at Thu Aug 21 00:36:53 2025.
