 Entering Gaussian System, Link 0=g09
 Initial command:
 /soft/g09.c01/g09/l1.exe /scr/macias/389608.qcexmaster_vib5_0.05/Gau-9927.inp -scrdir=/scr/macias/389608.qcexmaster_vib5_0.05/
 Entering Link 1 = /soft/g09.c01/g09/l1.exe PID=      9934.
  
 Copyright (c) 1988,1990,1992,1993,1995,1998,2003,2009,2011,
            Gaussian, Inc.  All Rights Reserved.
  
 This is part of the Gaussian(R) 09 program.  It is based on
 the Gaussian(R) 03 system (copyright 2003, Gaussian, Inc.),
 the Gaussian(R) 98 system (copyright 1998, Gaussian, Inc.),
 the Gaussian(R) 94 system (copyright 1995, Gaussian, Inc.),
 the Gaussian 92(TM) system (copyright 1992, Gaussian, Inc.),
 the Gaussian 90(TM) system (copyright 1990, Gaussian, Inc.),
 the Gaussian 88(TM) system (copyright 1988, Gaussian, Inc.),
 the Gaussian 86(TM) system (copyright 1986, Carnegie Mellon
 University), and the Gaussian 82(TM) system (copyright 1983,
 Carnegie Mellon University). Gaussian is a federally registered
 trademark of Gaussian, Inc.
  
 This software contains proprietary and confidential information,
 including trade secrets, belonging to Gaussian, Inc.
  
 This software is provided under written license and may be
 used, copied, transmitted, or stored only in accord with that
 written license.
  
 The following legend is applicable only to US Government
 contracts under FAR:
  
                    RESTRICTED RIGHTS LEGEND
  
 Use, reproduction and disclosure by the US Government is
 subject to restrictions as set forth in subparagraphs (a)
 and (c) of the Commercial Computer Software - Restricted
 Rights clause in FAR 52.227-19.
  
 Gaussian, Inc.
 340 Quinnipiac St., Bldg. 40, Wallingford CT 06492
  
  
 ---------------------------------------------------------------
 Warning -- This program may not be used in any manner that
 competes with the business of Gaussian, Inc. or will provide
 assistance to any competitor of Gaussian, Inc.  The licensee
 of this program is prohibited from giving any competitor of
 Gaussian, Inc. access to this program.  By using this program,
 the user acknowledges that Gaussian, Inc. is engaged in the
 business of creating and licensing software in the field of
 computational chemistry and represents and warrants to the
 licensee that it is not a competitor of Gaussian, Inc. and that
 it will not use this program in any manner prohibited above.
 ---------------------------------------------------------------
  

 Cite this work as:
 Gaussian 09, Revision C.01,
 M. J. Frisch, G. W. Trucks, H. B. Schlegel, G. E. Scuseria, 
 M. A. Robb, J. R. Cheeseman, G. Scalmani, V. Barone, B. Mennucci, 
 G. A. Petersson, H. Nakatsuji, M. Caricato, X. Li, H. P. Hratchian, 
 A. F. Izmaylov, J. Bloino, G. Zheng, J. L. Sonnenberg, M. Hada, 
 M. Ehara, K. Toyota, R. Fukuda, J. Hasegawa, M. Ishida, T. Nakajima, 
 Y. Honda, O. Kitao, H. Nakai, T. Vreven, J. A. Montgomery, Jr., 
 J. E. Peralta, F. Ogliaro, M. Bearpark, J. J. Heyd, E. Brothers, 
 K. N. Kudin, V. N. Staroverov, T. Keith, R. Kobayashi, J. Normand, 
 K. Raghavachari, A. Rendell, J. C. Burant, S. S. Iyengar, J. Tomasi, 
 M. Cossi, N. Rega, J. M. Millam, M. Klene, J. E. Knox, J. B. Cross, 
 V. Bakken, C. Adamo, J. Jaramillo, R. Gomperts, R. E. Stratmann, 
 O. Yazyev, A. J. Austin, R. Cammi, C. Pomelli, J. W. Ochterski, 
 R. L. Martin, K. Morokuma, V. G. Zakrzewski, G. A. Voth, 
 P. Salvador, J. J. Dannenberg, S. Dapprich, A. D. Daniels, 
 O. Farkas, J. B. Foresman, J. V. Ortiz, J. Cioslowski, 
 and D. J. Fox, Gaussian, Inc., Wallingford CT, 2010.
 
  
 -----  Compilado por  -----------------------------------------
  
  Servicio de Calculo | Servicio de Informatica U. de Valencia
     calculo@uv.es    |  E-46100 Burjassot (Valencia) SPAIN
  
 ---------------------------------------------------------------
  
 ******************************************
 Gaussian 09:  EM64L-G09RevC.01 23-Sep-2011
                21-Aug-2020 
 ******************************************
 %chk=opt_freq.chk
 %nproc=6
 Will use up to    6 processors via shared memory.
 %mem=20GB
 Default route:  CacheSize=131072
 -----------------------
 #sp wB97XD/6-311+G(3df)
 -----------------------
 1/4=131072,38=1/1;
 2/4=131072,12=2,17=6,18=5,40=1/2;
 3/4=131072,5=4,6=6,7=16,11=2,16=1,25=1,30=1,74=-58/1,2,3;
 4/4=131072/1;
 5/4=131072,5=2,38=5/2;
 6/4=131072,7=2,8=2,9=2,10=2,28=1/1;
 99/4=131072,5=1,9=1/99;
 ---------------------
 Optimizacion del hoso
 ---------------------
 Charge =  0 Multiplicity = 2
 Symbolic Z-Matrix:
 S                    -0.14884  -0.46251   0.01631 
 O                     1.31263   0.25447  -0.04604 
 O                    -1.16514   0.52444  -0.01954 
 H                     1.18902   1.16235   0.26518 
 
                          Input orientation:                          
 ---------------------------------------------------------------------
 Center     Atomic      Atomic             Coordinates (Angstroms)
 Number     Number       Type             X           Y           Z
 ---------------------------------------------------------------------
      1         16           0       -0.148843   -0.462508    0.016308
      2          8           0        1.312632    0.254471   -0.046040
      3          8           0       -1.165136    0.524438   -0.019537
      4          1           0        1.189021    1.162345    0.265181
 ---------------------------------------------------------------------
                    Distance matrix (angstroms):
                    1          2          3          4
     1  S    0.000000
     2  O    1.629066   0.000000
     3  O    1.417109   2.492573   0.000000
     4  H    2.119426   0.967664   2.455615   0.000000
 Stoichiometry    HO2S(2)
 Framework group  C1[X(HO2S)]
 Deg. of freedom     6
 Full point group                 C1      NOp   1
 Largest Abelian subgroup         C1      NOp   1
 Largest concise Abelian subgroup C1      NOp   1
                         Standard orientation:                         
 ---------------------------------------------------------------------
 Center     Atomic      Atomic             Coordinates (Angstroms)
 Number     Number       Type             X           Y           Z
 ---------------------------------------------------------------------
      1         16           0       -0.154996   -0.460140    0.016877
      2          8           0        1.316520    0.236019   -0.045238
      3          8           0       -1.157210    0.541003   -0.021562
      4          1           0        1.205455    1.146061    0.264376
 ---------------------------------------------------------------------
 Rotational constants (GHZ):     36.8580493      9.8102534      7.7740869
 Standard basis: 6-311+G(3df) (5D, 7F)
 There are   128 symmetry adapted basis functions of A   symmetry.
 Integral buffers will be    131072 words long.
 Raffenetti 2 integral format.
 Two-electron integral symmetry is turned on.
   128 basis functions,   193 primitive gaussians,   146 cartesian basis functions
    17 alpha electrons       16 beta electrons
       nuclear repulsion energy       113.0576684325 Hartrees.
 NAtoms=    4 NActive=    4 NUniq=    4 SFac= 1.00D+00 NAtFMM=   60 NAOKFM=F Big=F
 Nuclear repulsion after empirical dispersion term =      113.0574316133 Hartrees.
 One-electron integrals computed using PRISM.
 NBasis=   128 RedAO= T  NBF=   128
 NBsUse=   128 1.00D-06 NBFU=   128
 Harris functional with IExCor= 4639 diagonalized for initial guess.
 ExpMin= 4.05D-02 ExpMax= 9.34D+04 ExpMxC= 3.17D+03 IAcc=2 IRadAn=         4 AccDes= 0.00D+00
 HarFok:  IExCor= 4639 AccDes= 0.00D+00 IRadAn=         4 IDoV= 1
 ScaDFX=  1.000000  1.000000  1.000000  1.000000
 FoFCou: FMM=F IPFlag=           0 FMFlag=      100000 FMFlg1=           0
         NFxFlg=           0 DoJE=T BraDBF=F KetDBF=T FulRan=T
         Omega=  0.000000  0.000000  1.000000  0.000000  0.000000 ICntrl=     500 IOpCl=  0
         NMat0=    1 NMatS0=    1 NMatT0=    0 NMatD0=    1 NMtDS0=    0 NMtDT0=    0
         I1Cent=           4 NGrid=           0.
 Petite list used in FoFCou.
 Initial guess orbital symmetries:
 Alpha Orbitals:
       Occupied  (A) (A) (A) (A) (A) (A) (A) (A) (A) (A) (A) (A)
                 (A) (A) (A) (A) (A)
       Virtual   (A) (A) (A) (A) (A) (A) (A) (A) (A) (A) (A) (A)
                 (A) (A) (A) (A) (A) (A) (A) (A) (A) (A) (A) (A)
                 (A) (A) (A) (A) (A) (A) (A) (A) (A) (A) (A) (A)
                 (A) (A) (A) (A) (A) (A) (A) (A) (A) (A) (A) (A)
                 (A) (A) (A) (A) (A) (A) (A) (A) (A) (A) (A) (A)
                 (A) (A) (A) (A) (A) (A) (A) (A) (A) (A) (A) (A)
                 (A) (A) (A) (A) (A) (A) (A) (A) (A) (A) (A) (A)
                 (A) (A) (A) (A) (A) (A) (A) (A) (A) (A) (A) (A)
                 (A) (A) (A) (A) (A) (A) (A) (A) (A) (A) (A) (A)
                 (A) (A) (A)
 Beta  Orbitals:
       Occupied  (A) (A) (A) (A) (A) (A) (A) (A) (A) (A) (A) (A)
                 (A) (A) (A) (A)
       Virtual   (A) (A) (A) (A) (A) (A) (A) (A) (A) (A) (A) (A)
                 (A) (A) (A) (A) (A) (A) (A) (A) (A) (A) (A) (A)
                 (A) (A) (A) (A) (A) (A) (A) (A) (A) (A) (A) (A)
                 (A) (A) (A) (A) (A) (A) (A) (A) (A) (A) (A) (A)
                 (A) (A) (A) (A) (A) (A) (A) (A) (A) (A) (A) (A)
                 (A) (A) (A) (A) (A) (A) (A) (A) (A) (A) (A) (A)
                 (A) (A) (A) (A) (A) (A) (A) (A) (A) (A) (A) (A)
                 (A) (A) (A) (A) (A) (A) (A) (A) (A) (A) (A) (A)
                 (A) (A) (A) (A) (A) (A) (A) (A) (A) (A) (A) (A)
                 (A) (A) (A) (A)
 The electronic state of the initial guess is 2-A.
 Initial guess <Sx>= 0.0000 <Sy>= 0.0000 <Sz>= 0.5000 <S**2>= 0.7500 S= 0.5000
 Requested convergence on RMS density matrix=1.00D-08 within 128 cycles.
 Requested convergence on MAX density matrix=1.00D-06.
 Requested convergence on             energy=1.00D-06.
 No special actions if energy rises.
 FoFJK:  IHMeth= 1 ICntrl=     0 DoSepK=T KAlg= 1 I1Cent= 0 FoldK=F
 FoFJK:  IHMeth= 1 ICntrl=     0 DoSepK=T KAlg= 1 I1Cent= 0 FoldK=F
 FoFJK:  IHMeth= 1 ICntrl=     0 DoSepK=T KAlg= 1 I1Cent= 0 FoldK=F
 FoFJK:  IHMeth= 1 ICntrl=     0 DoSepK=T KAlg= 1 I1Cent= 0 FoldK=F
 FoFJK:  IHMeth= 1 ICntrl=     0 DoSepK=T KAlg= 1 I1Cent= 0 FoldK=F
 FoFJK:  IHMeth= 1 ICntrl=     0 DoSepK=T KAlg= 1 I1Cent= 0 FoldK=F
 FoFJK:  IHMeth= 1 ICntrl=     0 DoSepK=T KAlg= 1 I1Cent= 0 FoldK=F
 FoFJK:  IHMeth= 1 ICntrl=     0 DoSepK=T KAlg= 1 I1Cent= 0 FoldK=F
 FoFJK:  IHMeth= 1 ICntrl=     0 DoSepK=T KAlg= 1 I1Cent= 0 FoldK=F
 FoFJK:  IHMeth= 1 ICntrl=     0 DoSepK=T KAlg= 1 I1Cent= 0 FoldK=F
 FoFJK:  IHMeth= 1 ICntrl=     0 DoSepK=T KAlg= 1 I1Cent= 0 FoldK=F
 FoFJK:  IHMeth= 1 ICntrl=     0 DoSepK=T KAlg= 1 I1Cent= 0 FoldK=F
 FoFJK:  IHMeth= 1 ICntrl=     0 DoSepK=T KAlg= 1 I1Cent= 0 FoldK=F
 FoFJK:  IHMeth= 1 ICntrl=     0 DoSepK=T KAlg= 1 I1Cent= 0 FoldK=F
 FoFJK:  IHMeth= 1 ICntrl=     0 DoSepK=T KAlg= 1 I1Cent= 0 FoldK=F
 SCF Done:  E(UwB97XD) =  -549.218753010     A.U. after   15 cycles
             Convg  =    0.5199D-08             -V/T =  2.0014
 <Sx>= 0.0000 <Sy>= 0.0000 <Sz>= 0.5000 <S**2>= 0.7552 S= 0.5026
 <L.S>= 0.000000000000E+00
 Annihilation of the first spin contaminant:
 S**2 before annihilation     0.7552,   after     0.7500

 **********************************************************************

            Population analysis using the SCF density.

 **********************************************************************

 Orbital symmetries:
 Alpha Orbitals:
       Occupied  (A) (A) (A) (A) (A) (A) (A) (A) (A) (A) (A) (A)
                 (A) (A) (A) (A) (A)
       Virtual   (A) (A) (A) (A) (A) (A) (A) (A) (A) (A) (A) (A)
                 (A) (A) (A) (A) (A) (A) (A) (A) (A) (A) (A) (A)
                 (A) (A) (A) (A) (A) (A) (A) (A) (A) (A) (A) (A)
                 (A) (A) (A) (A) (A) (A) (A) (A) (A) (A) (A) (A)
                 (A) (A) (A) (A) (A) (A) (A) (A) (A) (A) (A) (A)
                 (A) (A) (A) (A) (A) (A) (A) (A) (A) (A) (A) (A)
                 (A) (A) (A) (A) (A) (A) (A) (A) (A) (A) (A) (A)
                 (A) (A) (A) (A) (A) (A) (A) (A) (A) (A) (A) (A)
                 (A) (A) (A) (A) (A) (A) (A) (A) (A) (A) (A) (A)
                 (A) (A) (A)
 Beta  Orbitals:
       Occupied  (A) (A) (A) (A) (A) (A) (A) (A) (A) (A) (A) (A)
                 (A) (A) (A) (A)
       Virtual   (A) (A) (A) (A) (A) (A) (A) (A) (A) (A) (A) (A)
                 (A) (A) (A) (A) (A) (A) (A) (A) (A) (A) (A) (A)
                 (A) (A) (A) (A) (A) (A) (A) (A) (A) (A) (A) (A)
                 (A) (A) (A) (A) (A) (A) (A) (A) (A) (A) (A) (A)
                 (A) (A) (A) (A) (A) (A) (A) (A) (A) (A) (A) (A)
                 (A) (A) (A) (A) (A) (A) (A) (A) (A) (A) (A) (A)
                 (A) (A) (A) (A) (A) (A) (A) (A) (A) (A) (A) (A)
                 (A) (A) (A) (A) (A) (A) (A) (A) (A) (A) (A) (A)
                 (A) (A) (A) (A) (A) (A) (A) (A) (A) (A) (A) (A)
                 (A) (A) (A) (A)
 The electronic state is 2-A.
 Alpha  occ. eigenvalues --  -89.14418 -19.31527 -19.28281  -8.17299  -6.12214
 Alpha  occ. eigenvalues --   -6.11992  -6.11626  -1.23622  -1.15948  -0.79251
 Alpha  occ. eigenvalues --   -0.63079  -0.58100  -0.57270  -0.51213  -0.47354
 Alpha  occ. eigenvalues --   -0.42868  -0.30313
 Alpha virt. eigenvalues --    0.05312   0.06859   0.07874   0.09348   0.11923
 Alpha virt. eigenvalues --    0.13865   0.19236   0.22427   0.24582   0.25083
 Alpha virt. eigenvalues --    0.26428   0.28030   0.30427   0.32423   0.32844
 Alpha virt. eigenvalues --    0.35515   0.36648   0.37982   0.39617   0.40869
 Alpha virt. eigenvalues --    0.41449   0.51694   0.56962   0.69584   0.78516
 Alpha virt. eigenvalues --    0.81275   0.87157   0.87764   0.93670   0.95614
 Alpha virt. eigenvalues --    0.96846   0.97900   0.99965   1.02519   1.05737
 Alpha virt. eigenvalues --    1.09158   1.10435   1.12434   1.14515   1.19767
 Alpha virt. eigenvalues --    1.22409   1.30069   1.35396   1.37779   1.41233
 Alpha virt. eigenvalues --    1.43899   1.66914   1.68346   1.76385   1.81402
 Alpha virt. eigenvalues --    1.92636   2.01518   2.08577   2.09601   2.12094
 Alpha virt. eigenvalues --    2.19233   2.31794   2.40820   2.46953   3.37512
 Alpha virt. eigenvalues --    3.42254   3.44850   3.47983   3.50167   3.56765
 Alpha virt. eigenvalues --    3.57413   3.63932   3.72565   3.73730   4.53525
 Alpha virt. eigenvalues --    4.60447   4.65104   4.70982   4.92378   4.98857
 Alpha virt. eigenvalues --    5.03327   5.03901   5.04248   5.06809   5.08950
 Alpha virt. eigenvalues --    5.10491   5.11429   5.17789   5.25422   5.27208
 Alpha virt. eigenvalues --    5.42195   5.47024   5.54089   5.58128   5.72719
 Alpha virt. eigenvalues --    5.78050   5.90042   6.01700   6.57586   8.84444
 Alpha virt. eigenvalues --   14.32532  14.35833  14.37080  14.39482  14.41714
 Alpha virt. eigenvalues --   14.46164  14.47486  14.49735  14.63828  14.71770
 Alpha virt. eigenvalues --   17.37149  17.62819  18.01721  50.02946  50.13474
 Alpha virt. eigenvalues --  189.91555
  Beta  occ. eigenvalues --  -89.14030 -19.31282 -19.27440  -8.16952  -6.11982
  Beta  occ. eigenvalues --   -6.11416  -6.10746  -1.22327  -1.14767  -0.76930
  Beta  occ. eigenvalues --   -0.61785  -0.57256  -0.53665  -0.49269  -0.44120
  Beta  occ. eigenvalues --   -0.41623
  Beta virt. eigenvalues --   -0.03222   0.05736   0.07260   0.08291   0.10016
  Beta virt. eigenvalues --    0.12937   0.14608   0.19576   0.22648   0.24917
  Beta virt. eigenvalues --    0.25281   0.26837   0.28425   0.30714   0.32626
  Beta virt. eigenvalues --    0.34009   0.35808   0.37077   0.38649   0.40852
  Beta virt. eigenvalues --    0.41452   0.42383   0.52226   0.57196   0.70120
  Beta virt. eigenvalues --    0.79069   0.81552   0.87596   0.88624   0.94308
  Beta virt. eigenvalues --    0.95991   0.97987   0.98743   1.00801   1.03218
  Beta virt. eigenvalues --    1.06475   1.10098   1.12322   1.12999   1.14830
  Beta virt. eigenvalues --    1.20690   1.23667   1.30532   1.36581   1.38602
  Beta virt. eigenvalues --    1.41625   1.44286   1.70132   1.70376   1.78033
  Beta virt. eigenvalues --    1.83008   1.93425   2.02943   2.09288   2.12024
  Beta virt. eigenvalues --    2.12509   2.19723   2.32263   2.41718   2.47489
  Beta virt. eigenvalues --    3.38416   3.43781   3.46996   3.48959   3.51377
  Beta virt. eigenvalues --    3.57894   3.59299   3.64598   3.72928   3.74826
  Beta virt. eigenvalues --    4.54073   4.60640   4.65998   4.71429   4.92988
  Beta virt. eigenvalues --    4.99415   5.03964   5.04797   5.04965   5.08269
  Beta virt. eigenvalues --    5.10934   5.12620   5.14197   5.18552   5.26360
  Beta virt. eigenvalues --    5.28482   5.42814   5.47551   5.54836   5.58903
  Beta virt. eigenvalues --    5.73027   5.79013   5.91682   6.02221   6.57981
  Beta virt. eigenvalues --    8.84801  14.33830  14.38215  14.40383  14.40988
  Beta virt. eigenvalues --   14.43719  14.47263  14.49910  14.51489  14.64443
  Beta virt. eigenvalues --   14.73661  17.38555  17.63114  18.02054  50.03175
  Beta virt. eigenvalues --   50.14210 189.91861
          Condensed to atoms (all electrons):
              1          2          3          4
     1  S   15.405490  -0.020390   0.104961   0.010565
     2  O   -0.020390   8.430883   0.007353   0.209721
     3  O    0.104961   0.007353   8.252725  -0.001405
     4  H    0.010565   0.209721  -0.001405   0.289292
 Mulliken atomic charges:
              1
     1  S    0.499374
     2  O   -0.627567
     3  O   -0.363633
     4  H    0.491826
 Sum of Mulliken atomic charges =   0.00000
 Mulliken charges with hydrogens summed into heavy atoms:
              1
     1  S    0.499374
     2  O   -0.135741
     3  O   -0.363633
 Sum of Mulliken charges with hydrogens summed into heavy atoms =   0.00000
          Atomic-Atomic Spin Densities.
              1          2          3          4
     1  S    0.987092  -0.107362  -0.213550  -0.000897
     2  O   -0.107362   0.150054   0.020186  -0.004401
     3  O   -0.213550   0.020186   0.468917  -0.000448
     4  H   -0.000897  -0.004401  -0.000448   0.006881
 Mulliken atomic spin densities:
              1
     1  S    0.665282
     2  O    0.058477
     3  O    0.275105
     4  H    0.001135
 Sum of Mulliken atomic spin densities =   1.00000
 Electronic spatial extent (au):  <R**2>=            174.3917
 Charge=              0.0000 electrons
 Dipole moment (field-independent basis, Debye):
    X=              1.0487    Y=              0.1593    Z=              0.5388  Tot=              1.1897
 Quadrupole moment (field-independent basis, Debye-Ang):
   XX=            -26.5082   YY=            -21.2345   ZZ=            -23.5151
   XY=              3.2760   XZ=              0.6777   YZ=              0.8527
 Traceless Quadrupole moment (field-independent basis, Debye-Ang):
   XX=             -2.7556   YY=              2.5181   ZZ=              0.2375
   XY=              3.2760   XZ=              0.6777   YZ=              0.8527
 Octapole moment (field-independent basis, Debye-Ang**2):
  XXX=              0.6207  YYY=              5.1615  ZZZ=             -0.0365  XYY=              4.3020
  XXY=              0.9156  XXZ=              0.8323  XZZ=             -0.0101  YZZ=              1.2987
  YYZ=              0.9654  XYZ=              1.0030
 Hexadecapole moment (field-independent basis, Debye-Ang**3):
 XXXX=           -138.6741 YYYY=            -50.6501 ZZZZ=            -24.8875 XXXY=              5.7269
 XXXZ=              1.1175 YYYX=              5.6038 YYYZ=              1.3534 ZZZX=              0.3728
 ZZZY=              0.6095 XXYY=            -26.4644 XXZZ=            -26.4385 YYZZ=            -13.6000
 XXYZ=              1.3874 YYXZ=              1.1611 ZZXY=              0.3997
 N-N= 1.130574316133D+02 E-N=-2.286944602797D+03  KE= 8.212908585175D+02
                          Isotropic Fermi Contact Couplings
        Atom                 a.u.       MegaHertz       Gauss      10(-4) cm-1
     1  S(33)              0.10357      35.57217      12.69303      11.86560
     2  O(17)              0.02105     -12.76256      -4.55400      -4.25713
     3  O(17)              0.05065     -30.70249     -10.95541     -10.24125
     4  H(1)               0.00068       3.04985       1.08826       1.01732
 --------------------------------------------------------
       Center         ----  Spin Dipole Couplings  ----
                      3XX-RR        3YY-RR        3ZZ-RR
 --------------------------------------------------------
     1   Atom       -1.514445     -1.625201      3.139646
     2   Atom       -0.237976     -0.205857      0.443832
     3   Atom       -0.738432     -0.740774      1.479206
     4   Atom       -0.008747      0.020506     -0.011758
 --------------------------------------------------------
                        XY            XZ            YZ
 --------------------------------------------------------
     1   Atom       -0.008263     -0.040382      0.208049
     2   Atom        0.008245      0.011275     -0.112042
     3   Atom        0.002662      0.078426      0.052235
     4   Atom        0.004628      0.001151      0.005049
 --------------------------------------------------------


 ---------------------------------------------------------------------------------
              Anisotropic Spin Dipole Couplings in Principal Axis System
 ---------------------------------------------------------------------------------

       Atom             a.u.   MegaHertz   Gauss  10(-4) cm-1        Axes

              Baa    -1.6346   -67.018   -23.914   -22.355  0.0541  0.9976 -0.0430
     1 S(33)  Bbb    -1.5144   -62.091   -22.156   -20.711  0.9985 -0.0537  0.0111
              Bcc     3.1491   129.109    46.069    43.066 -0.0087  0.0435  0.9990
 
              Baa    -0.2434    17.614     6.285     5.875  0.8828 -0.4611 -0.0897
     2 O(17)  Bbb    -0.2193    15.870     5.663     5.294  0.4695  0.8719  0.1393
              Bcc     0.4627   -33.484   -11.948   -11.169  0.0139 -0.1651  0.9862
 
              Baa    -0.7425    53.728    19.171    17.922 -0.5293  0.8484 -0.0013
     3 O(17)  Bbb    -0.7407    53.596    19.124    17.878  0.8477  0.5288 -0.0424
              Bcc     1.4832  -107.324   -38.296   -35.799  0.0353  0.0235  0.9991
 
              Baa    -0.0126    -6.718    -2.397    -2.241 -0.1366 -0.1307  0.9820
     4 H(1)   Bbb    -0.0094    -5.026    -1.793    -1.677  0.9788 -0.1705  0.1135
              Bcc     0.0220    11.744     4.191     3.917  0.1526  0.9766  0.1512
 

 ---------------------------------------------------------------------------------

 1\1\ CPUSERV-QCEXNOD16\SP\UwB97XD\6-311+G(3df)\H1O2S1(2)\ROOT\21-Aug-2
 020\0\\#sp wB97XD/6-311+G(3df)\\Optimizacion del hoso\\0,2\S,0,-0.1488
 43,-0.462508,0.016308\O,0,1.312632,0.254471,-0.04604\O,0,-1.165136,0.5
 24438,-0.019537\H,0,1.189021,1.162345,0.265181\\Version=EM64L-G09RevC.
 01\State=2-A\HF=-549.218753\S2=0.755218\S2-1=0.\S2A=0.750019\RMSD=5.19
 9e-09\Dipole=0.4118635,0.0681293,0.2116892\Quadrupole=-2.115765,1.9380
 679,0.1776971,2.3791077,0.5009162,0.641617\PG=C01 [X(H1O2S1)]\\@


 EVANS BOLDLY PUT 50 ATM. OF ETHYLENE IN A CELL WITH 25 ATM. OF OXYGEN.
 THE APPARATUS SUBSEQUENTLY BLEW UP, BUT LUCKILY NOT BEFORE HE
 OBTAINED THE SPECTRA SHOWN IN FIGURE 8.
 A.J.MERER AND R.S.MULLIKEN, CHEM.REV. 69, 645 (1969)
 Job cpu time:  0 days  0 hours  4 minutes 43.4 seconds.
 File lengths (MBytes):  RWF=     21 Int=      0 D2E=      0 Chk=      2 Scr=      1
 Normal termination of Gaussian 09 at Fri Aug 21 00:31:53 2020.
