 Entering Gaussian System, Link 0=g09
 Initial command:
 /soft/g09.c01/g09/l1.exe /scr/macias/389561.qcexmaster_vib6_-0.05/Gau-29760.inp -scrdir=/scr/macias/389561.qcexmaster_vib6_-0.05/
 Entering Link 1 = /soft/g09.c01/g09/l1.exe PID=     29762.
  
 Copyright (c) 1988,1990,1992,1993,1995,1998,2003,2009,2011,
            Gaussian, Inc.  All Rights Reserved.
  
 This is part of the Gaussian(R) 09 program.  It is based on
 the Gaussian(R) 03 system (copyright 2003, Gaussian, Inc.),
 the Gaussian(R) 98 system (copyright 1998, Gaussian, Inc.),
 the Gaussian(R) 94 system (copyright 1995, Gaussian, Inc.),
 the Gaussian 92(TM) system (copyright 1992, Gaussian, Inc.),
 the Gaussian 90(TM) system (copyright 1990, Gaussian, Inc.),
 the Gaussian 88(TM) system (copyright 1988, Gaussian, Inc.),
 the Gaussian 86(TM) system (copyright 1986, Carnegie Mellon
 University), and the Gaussian 82(TM) system (copyright 1983,
 Carnegie Mellon University). Gaussian is a federally registered
 trademark of Gaussian, Inc.
  
 This software contains proprietary and confidential information,
 including trade secrets, belonging to Gaussian, Inc.
  
 This software is provided under written license and may be
 used, copied, transmitted, or stored only in accord with that
 written license.
  
 The following legend is applicable only to US Government
 contracts under FAR:
  
                    RESTRICTED RIGHTS LEGEND
  
 Use, reproduction and disclosure by the US Government is
 subject to restrictions as set forth in subparagraphs (a)
 and (c) of the Commercial Computer Software - Restricted
 Rights clause in FAR 52.227-19.
  
 Gaussian, Inc.
 340 Quinnipiac St., Bldg. 40, Wallingford CT 06492
  
  
 ---------------------------------------------------------------
 Warning -- This program may not be used in any manner that
 competes with the business of Gaussian, Inc. or will provide
 assistance to any competitor of Gaussian, Inc.  The licensee
 of this program is prohibited from giving any competitor of
 Gaussian, Inc. access to this program.  By using this program,
 the user acknowledges that Gaussian, Inc. is engaged in the
 business of creating and licensing software in the field of
 computational chemistry and represents and warrants to the
 licensee that it is not a competitor of Gaussian, Inc. and that
 it will not use this program in any manner prohibited above.
 ---------------------------------------------------------------
  

 Cite this work as:
 Gaussian 09, Revision C.01,
 M. J. Frisch, G. W. Trucks, H. B. Schlegel, G. E. Scuseria, 
 M. A. Robb, J. R. Cheeseman, G. Scalmani, V. Barone, B. Mennucci, 
 G. A. Petersson, H. Nakatsuji, M. Caricato, X. Li, H. P. Hratchian, 
 A. F. Izmaylov, J. Bloino, G. Zheng, J. L. Sonnenberg, M. Hada, 
 M. Ehara, K. Toyota, R. Fukuda, J. Hasegawa, M. Ishida, T. Nakajima, 
 Y. Honda, O. Kitao, H. Nakai, T. Vreven, J. A. Montgomery, Jr., 
 J. E. Peralta, F. Ogliaro, M. Bearpark, J. J. Heyd, E. Brothers, 
 K. N. Kudin, V. N. Staroverov, T. Keith, R. Kobayashi, J. Normand, 
 K. Raghavachari, A. Rendell, J. C. Burant, S. S. Iyengar, J. Tomasi, 
 M. Cossi, N. Rega, J. M. Millam, M. Klene, J. E. Knox, J. B. Cross, 
 V. Bakken, C. Adamo, J. Jaramillo, R. Gomperts, R. E. Stratmann, 
 O. Yazyev, A. J. Austin, R. Cammi, C. Pomelli, J. W. Ochterski, 
 R. L. Martin, K. Morokuma, V. G. Zakrzewski, G. A. Voth, 
 P. Salvador, J. J. Dannenberg, S. Dapprich, A. D. Daniels, 
 O. Farkas, J. B. Foresman, J. V. Ortiz, J. Cioslowski, 
 and D. J. Fox, Gaussian, Inc., Wallingford CT, 2010.
 
  
 -----  Compilado por  -----------------------------------------
  
  Servicio de Calculo | Servicio de Informatica U. de Valencia
     calculo@uv.es    |  E-46100 Burjassot (Valencia) SPAIN
  
 ---------------------------------------------------------------
  
 ******************************************
 Gaussian 09:  EM64L-G09RevC.01 23-Sep-2011
                21-Aug-2025 
 ******************************************
 %chk=opt_freq.chk
 %nproc=6
 Will use up to    6 processors via shared memory.
 %mem=20GB
 Default route:  CacheSize=131072
 -----------------------
 #sp wB97XD/6-311+G(3df)
 -----------------------
 1/4=131072,38=1/1;
 2/4=131072,12=2,17=6,18=5,40=1/2;
 3/4=131072,5=4,6=6,7=16,11=2,16=1,25=1,30=1,74=-58/1,2,3;
 4/4=131072/1;
 5/4=131072,5=2,38=5/2;
 6/4=131072,7=2,8=2,9=2,10=2,28=1/1;
 99/4=131072,5=1,9=1/99;
 ---------------------
 Optimizacion del hoso
 ---------------------
 Charge =  0 Multiplicity = 2
 Symbolic Z-Matrix:
 S                    -0.13884  -0.47401   0.01631 
 O                     1.31013   0.25347  -0.04604 
 O                    -1.18564   0.54544  -0.02004 
 H                     1.22202   1.21635   0.27518 
 
                          Input orientation:                          
 ---------------------------------------------------------------------
 Center     Atomic      Atomic             Coordinates (Angstroms)
 Number     Number       Type             X           Y           Z
 ---------------------------------------------------------------------
      1         16           0       -0.138843   -0.474008    0.016308
      2          8           0        1.310132    0.253471   -0.046040
      3          8           0       -1.185636    0.545438   -0.020037
      4          1           0        1.222021    1.216345    0.275181
 ---------------------------------------------------------------------
                    Distance matrix (angstroms):
                    1          2          3          4
     1  S    0.000000
     2  O    1.622542   0.000000
     3  O    1.461632   2.512922   0.000000
     4  H    2.185465   1.018859   2.516760   0.000000
 Stoichiometry    HO2S(2)
 Framework group  C1[X(HO2S)]
 Deg. of freedom     6
 Full point group                 C1      NOp   1
 Largest Abelian subgroup         C1      NOp   1
 Largest concise Abelian subgroup C1      NOp   1
                         Standard orientation:                         
 ---------------------------------------------------------------------
 Center     Atomic      Atomic             Coordinates (Angstroms)
 Number     Number       Type             X           Y           Z
 ---------------------------------------------------------------------
      1         16           0       -0.139301   -0.474488    0.017944
      2          8           0        1.310527    0.251009   -0.047605
      3          8           0       -1.184882    0.546065   -0.022025
      4          1           0        1.223660    1.215215    0.269939
 ---------------------------------------------------------------------
 Rotational constants (GHZ):     34.8375208      9.6793966      7.6013166
 Standard basis: 6-311+G(3df) (5D, 7F)
 There are   128 symmetry adapted basis functions of A   symmetry.
 Integral buffers will be    131072 words long.
 Raffenetti 2 integral format.
 Two-electron integral symmetry is turned on.
   128 basis functions,   193 primitive gaussians,   146 cartesian basis functions
    17 alpha electrons       16 beta electrons
       nuclear repulsion energy       111.2764468964 Hartrees.
 NAtoms=    4 NActive=    4 NUniq=    4 SFac= 1.00D+00 NAtFMM=   60 NAOKFM=F Big=F
 Nuclear repulsion after empirical dispersion term =      111.2761901485 Hartrees.
 One-electron integrals computed using PRISM.
 NBasis=   128 RedAO= T  NBF=   128
 NBsUse=   128 1.00D-06 NBFU=   128
 Harris functional with IExCor= 4639 diagonalized for initial guess.
 ExpMin= 4.05D-02 ExpMax= 9.34D+04 ExpMxC= 3.17D+03 IAcc=2 IRadAn=         4 AccDes= 0.00D+00
 HarFok:  IExCor= 4639 AccDes= 0.00D+00 IRadAn=         4 IDoV= 1
 ScaDFX=  1.000000  1.000000  1.000000  1.000000
 FoFCou: FMM=F IPFlag=           0 FMFlag=      100000 FMFlg1=           0
         NFxFlg=           0 DoJE=T BraDBF=F KetDBF=T FulRan=T
         Omega=  0.000000  0.000000  1.000000  0.000000  0.000000 ICntrl=     500 IOpCl=  0
         NMat0=    1 NMatS0=    1 NMatT0=    0 NMatD0=    1 NMtDS0=    0 NMtDT0=    0
         I1Cent=           4 NGrid=           0.
 Petite list used in FoFCou.
 Initial guess orbital symmetries:
 Alpha Orbitals:
       Occupied  (A) (A) (A) (A) (A) (A) (A) (A) (A) (A) (A) (A)
                 (A) (A) (A) (A) (A)
       Virtual   (A) (A) (A) (A) (A) (A) (A) (A) (A) (A) (A) (A)
                 (A) (A) (A) (A) (A) (A) (A) (A) (A) (A) (A) (A)
                 (A) (A) (A) (A) (A) (A) (A) (A) (A) (A) (A) (A)
                 (A) (A) (A) (A) (A) (A) (A) (A) (A) (A) (A) (A)
                 (A) (A) (A) (A) (A) (A) (A) (A) (A) (A) (A) (A)
                 (A) (A) (A) (A) (A) (A) (A) (A) (A) (A) (A) (A)
                 (A) (A) (A) (A) (A) (A) (A) (A) (A) (A) (A) (A)
                 (A) (A) (A) (A) (A) (A) (A) (A) (A) (A) (A) (A)
                 (A) (A) (A) (A) (A) (A) (A) (A) (A) (A) (A) (A)
                 (A) (A) (A)
 Beta  Orbitals:
       Occupied  (A) (A) (A) (A) (A) (A) (A) (A) (A) (A) (A) (A)
                 (A) (A) (A) (A)
       Virtual   (A) (A) (A) (A) (A) (A) (A) (A) (A) (A) (A) (A)
                 (A) (A) (A) (A) (A) (A) (A) (A) (A) (A) (A) (A)
                 (A) (A) (A) (A) (A) (A) (A) (A) (A) (A) (A) (A)
                 (A) (A) (A) (A) (A) (A) (A) (A) (A) (A) (A) (A)
                 (A) (A) (A) (A) (A) (A) (A) (A) (A) (A) (A) (A)
                 (A) (A) (A) (A) (A) (A) (A) (A) (A) (A) (A) (A)
                 (A) (A) (A) (A) (A) (A) (A) (A) (A) (A) (A) (A)
                 (A) (A) (A) (A) (A) (A) (A) (A) (A) (A) (A) (A)
                 (A) (A) (A) (A) (A) (A) (A) (A) (A) (A) (A) (A)
                 (A) (A) (A) (A)
 The electronic state of the initial guess is 2-A.
 Initial guess <Sx>= 0.0000 <Sy>= 0.0000 <Sz>= 0.5000 <S**2>= 0.7500 S= 0.5000
 Requested convergence on RMS density matrix=1.00D-08 within 128 cycles.
 Requested convergence on MAX density matrix=1.00D-06.
 Requested convergence on             energy=1.00D-06.
 No special actions if energy rises.
 FoFJK:  IHMeth= 1 ICntrl=     0 DoSepK=T KAlg= 1 I1Cent= 0 FoldK=F
 FoFJK:  IHMeth= 1 ICntrl=     0 DoSepK=T KAlg= 1 I1Cent= 0 FoldK=F
 FoFJK:  IHMeth= 1 ICntrl=     0 DoSepK=T KAlg= 1 I1Cent= 0 FoldK=F
 FoFJK:  IHMeth= 1 ICntrl=     0 DoSepK=T KAlg= 1 I1Cent= 0 FoldK=F
 FoFJK:  IHMeth= 1 ICntrl=     0 DoSepK=T KAlg= 1 I1Cent= 0 FoldK=F
 FoFJK:  IHMeth= 1 ICntrl=     0 DoSepK=T KAlg= 1 I1Cent= 0 FoldK=F
 FoFJK:  IHMeth= 1 ICntrl=     0 DoSepK=T KAlg= 1 I1Cent= 0 FoldK=F
 FoFJK:  IHMeth= 1 ICntrl=     0 DoSepK=T KAlg= 1 I1Cent= 0 FoldK=F
 FoFJK:  IHMeth= 1 ICntrl=     0 DoSepK=T KAlg= 1 I1Cent= 0 FoldK=F
 FoFJK:  IHMeth= 1 ICntrl=     0 DoSepK=T KAlg= 1 I1Cent= 0 FoldK=F
 FoFJK:  IHMeth= 1 ICntrl=     0 DoSepK=T KAlg= 1 I1Cent= 0 FoldK=F
 FoFJK:  IHMeth= 1 ICntrl=     0 DoSepK=T KAlg= 1 I1Cent= 0 FoldK=F
 FoFJK:  IHMeth= 1 ICntrl=     0 DoSepK=T KAlg= 1 I1Cent= 0 FoldK=F
 FoFJK:  IHMeth= 1 ICntrl=     0 DoSepK=T KAlg= 1 I1Cent= 0 FoldK=F
 FoFJK:  IHMeth= 1 ICntrl=     0 DoSepK=T KAlg= 1 I1Cent= 0 FoldK=F
 SCF Done:  E(UwB97XD) =  -549.218945220     A.U. after   15 cycles
             Convg  =    0.7005D-08             -V/T =  2.0018
 <Sx>= 0.0000 <Sy>= 0.0000 <Sz>= 0.5000 <S**2>= 0.7555 S= 0.5027
 <L.S>= 0.000000000000E+00
 Annihilation of the first spin contaminant:
 S**2 before annihilation     0.7555,   after     0.7500

 **********************************************************************

            Population analysis using the SCF density.

 **********************************************************************

 Orbital symmetries:
 Alpha Orbitals:
       Occupied  (A) (A) (A) (A) (A) (A) (A) (A) (A) (A) (A) (A)
                 (A) (A) (A) (A) (A)
       Virtual   (A) (A) (A) (A) (A) (A) (A) (A) (A) (A) (A) (A)
                 (A) (A) (A) (A) (A) (A) (A) (A) (A) (A) (A) (A)
                 (A) (A) (A) (A) (A) (A) (A) (A) (A) (A) (A) (A)
                 (A) (A) (A) (A) (A) (A) (A) (A) (A) (A) (A) (A)
                 (A) (A) (A) (A) (A) (A) (A) (A) (A) (A) (A) (A)
                 (A) (A) (A) (A) (A) (A) (A) (A) (A) (A) (A) (A)
                 (A) (A) (A) (A) (A) (A) (A) (A) (A) (A) (A) (A)
                 (A) (A) (A) (A) (A) (A) (A) (A) (A) (A) (A) (A)
                 (A) (A) (A) (A) (A) (A) (A) (A) (A) (A) (A) (A)
                 (A) (A) (A)
 Beta  Orbitals:
       Occupied  (A) (A) (A) (A) (A) (A) (A) (A) (A) (A) (A) (A)
                 (A) (A) (A) (A)
       Virtual   (A) (A) (A) (A) (A) (A) (A) (A) (A) (A) (A) (A)
                 (A) (A) (A) (A) (A) (A) (A) (A) (A) (A) (A) (A)
                 (A) (A) (A) (A) (A) (A) (A) (A) (A) (A) (A) (A)
                 (A) (A) (A) (A) (A) (A) (A) (A) (A) (A) (A) (A)
                 (A) (A) (A) (A) (A) (A) (A) (A) (A) (A) (A) (A)
                 (A) (A) (A) (A) (A) (A) (A) (A) (A) (A) (A) (A)
                 (A) (A) (A) (A) (A) (A) (A) (A) (A) (A) (A) (A)
                 (A) (A) (A) (A) (A) (A) (A) (A) (A) (A) (A) (A)
                 (A) (A) (A) (A) (A) (A) (A) (A) (A) (A) (A) (A)
                 (A) (A) (A) (A)
 The electronic state is 2-A.
 Alpha  occ. eigenvalues --  -89.14802 -19.32155 -19.28225  -8.17553  -6.12482
 Alpha  occ. eigenvalues --   -6.12248  -6.11890  -1.21997  -1.14424  -0.79360
 Alpha  occ. eigenvalues --   -0.62796  -0.57284  -0.56454  -0.50357  -0.46998
 Alpha  occ. eigenvalues --   -0.42394  -0.30788
 Alpha virt. eigenvalues --    0.04628   0.06848   0.07668   0.09378   0.11607
 Alpha virt. eigenvalues --    0.13077   0.18339   0.22329   0.24529   0.25067
 Alpha virt. eigenvalues --    0.26464   0.28111   0.30214   0.32493   0.32956
 Alpha virt. eigenvalues --    0.35547   0.36533   0.37976   0.39193   0.40438
 Alpha virt. eigenvalues --    0.41138   0.50901   0.53725   0.68397   0.78335
 Alpha virt. eigenvalues --    0.81281   0.87212   0.87977   0.93815   0.96274
 Alpha virt. eigenvalues --    0.96999   0.97695   1.00246   1.02213   1.05624
 Alpha virt. eigenvalues --    1.09184   1.10268   1.12673   1.14129   1.17573
 Alpha virt. eigenvalues --    1.22380   1.28980   1.33544   1.38245   1.40335
 Alpha virt. eigenvalues --    1.42286   1.66958   1.68305   1.74603   1.80873
 Alpha virt. eigenvalues --    1.92503   2.01954   2.08617   2.08938   2.13484
 Alpha virt. eigenvalues --    2.20467   2.31463   2.36691   2.45167   3.37819
 Alpha virt. eigenvalues --    3.42389   3.45304   3.47830   3.50125   3.55509
 Alpha virt. eigenvalues --    3.56874   3.60742   3.69349   3.70691   4.53423
 Alpha virt. eigenvalues --    4.57402   4.61653   4.71339   4.91015   4.99709
 Alpha virt. eigenvalues --    5.03515   5.04298   5.04614   5.06632   5.09217
 Alpha virt. eigenvalues --    5.09959   5.11153   5.17147   5.24016   5.24946
 Alpha virt. eigenvalues --    5.39242   5.46363   5.53475   5.55715   5.64754
 Alpha virt. eigenvalues --    5.68986   5.85363   5.99425   6.58833   8.77937
 Alpha virt. eigenvalues --   14.32413  14.35701  14.37256  14.39138  14.41202
 Alpha virt. eigenvalues --   14.44491  14.46259  14.48660  14.62121  14.71002
 Alpha virt. eigenvalues --   17.36306  17.61709  17.90265  50.02306  50.11205
 Alpha virt. eigenvalues --  189.82624
  Beta  occ. eigenvalues --  -89.14416 -19.31908 -19.27346  -8.17209  -6.12254
  Beta  occ. eigenvalues --   -6.11682  -6.11010  -1.20795  -1.13014  -0.77022
  Beta  occ. eigenvalues --   -0.61520  -0.56465  -0.53020  -0.48365  -0.43299
  Beta  occ. eigenvalues --   -0.41192
  Beta virt. eigenvalues --   -0.03755   0.05054   0.07194   0.08109   0.09980
  Beta virt. eigenvalues --    0.12728   0.13587   0.18770   0.22538   0.24860
  Beta virt. eigenvalues --    0.25248   0.26938   0.28499   0.30522   0.32644
  Beta virt. eigenvalues --    0.34101   0.35818   0.36970   0.38704   0.40520
  Beta virt. eigenvalues --    0.41138   0.41726   0.51479   0.53957   0.68910
  Beta virt. eigenvalues --    0.78874   0.81581   0.87725   0.88760   0.94435
  Beta virt. eigenvalues --    0.96670   0.97870   0.98740   1.01192   1.02934
  Beta virt. eigenvalues --    1.06379   1.10101   1.12211   1.13125   1.14519
  Beta virt. eigenvalues --    1.18429   1.23664   1.29440   1.34885   1.39049
  Beta virt. eigenvalues --    1.40704   1.42648   1.70094   1.70272   1.76229
  Beta virt. eigenvalues --    1.82429   1.93297   2.03365   2.09303   2.11280
  Beta virt. eigenvalues --    2.13893   2.20940   2.31946   2.37627   2.45613
  Beta virt. eigenvalues --    3.38724   3.43892   3.47490   3.48942   3.51516
  Beta virt. eigenvalues --    3.57375   3.57929   3.61522   3.69765   3.71893
  Beta virt. eigenvalues --    4.53964   4.57563   4.62521   4.71822   4.91600
  Beta virt. eigenvalues --    5.00290   5.04370   5.05082   5.05236   5.07791
  Beta virt. eigenvalues --    5.11824   5.12732   5.13425   5.17959   5.24980
  Beta virt. eigenvalues --    5.26232   5.39834   5.46869   5.54165   5.56456
  Beta virt. eigenvalues --    5.65173   5.70108   5.87054   5.99949   6.59242
  Beta virt. eigenvalues --    8.78298  14.33694  14.37985  14.40251  14.41163
  Beta virt. eigenvalues --   14.43572  14.45458  14.49115  14.50214  14.62775
  Beta virt. eigenvalues --   14.73007  17.37699  17.61999  17.90587  50.02542
  Beta virt. eigenvalues --   50.11984 189.82928
          Condensed to atoms (all electrons):
              1          2          3          4
     1  S   15.356729  -0.008773   0.139925   0.010106
     2  O   -0.008773   8.401994   0.006004   0.204678
     3  O    0.139925   0.006004   8.239396  -0.000364
     4  H    0.010106   0.204678  -0.000364   0.298730
 Mulliken atomic charges:
              1
     1  S    0.502013
     2  O   -0.603903
     3  O   -0.384960
     4  H    0.486850
 Sum of Mulliken atomic charges =   0.00000
 Mulliken charges with hydrogens summed into heavy atoms:
              1
     1  S    0.502013
     2  O   -0.117052
     3  O   -0.384960
 Sum of Mulliken charges with hydrogens summed into heavy atoms =   0.00000
          Atomic-Atomic Spin Densities.
              1          2          3          4
     1  S    0.944796  -0.104683  -0.197327  -0.001235
     2  O   -0.104683   0.149873   0.019073  -0.003979
     3  O   -0.197327   0.019073   0.475309  -0.000389
     4  H   -0.001235  -0.003979  -0.000389   0.007103
 Mulliken atomic spin densities:
              1
     1  S    0.641550
     2  O    0.060284
     3  O    0.296665
     4  H    0.001500
 Sum of Mulliken atomic spin densities =   1.00000
 Electronic spatial extent (au):  <R**2>=            177.3924
 Charge=              0.0000 electrons
 Dipole moment (field-independent basis, Debye):
    X=              1.3217    Y=              0.1605    Z=              0.5590  Tot=              1.4440
 Quadrupole moment (field-independent basis, Debye-Ang):
   XX=            -26.6417   YY=            -20.9399   ZZ=            -23.6362
   XY=              3.4958   XZ=              0.7096   YZ=              0.8946
 Traceless Quadrupole moment (field-independent basis, Debye-Ang):
   XX=             -2.9025   YY=              2.7994   ZZ=              0.1031
   XY=              3.4958   XZ=              0.7096   YZ=              0.8946
 Octapole moment (field-independent basis, Debye-Ang**2):
  XXX=              1.4757  YYY=              5.5388  ZZZ=             -0.0393  XYY=              4.7814
  XXY=              1.1832  XXZ=              0.8715  XZZ=              0.1178  YZZ=              1.2072
  YYZ=              1.0786  XYZ=              1.0738
 Hexadecapole moment (field-independent basis, Debye-Ang**3):
 XXXX=           -141.2037 YYYY=            -51.5397 ZZZZ=            -25.0692 XXXY=              6.1431
 XXXZ=              1.1853 YYYX=              6.6447 YYYZ=              1.5590 ZZZX=              0.3648
 ZZZY=              0.5985 XXYY=            -26.4615 XXZZ=            -26.9046 YYZZ=            -13.9187
 XXYZ=              1.4720 YYXZ=              1.3257 ZZXY=              0.4553
 N-N= 1.112761901485D+02 E-N=-2.281430259985D+03  KE= 8.209186513068D+02
                          Isotropic Fermi Contact Couplings
        Atom                 a.u.       MegaHertz       Gauss      10(-4) cm-1
     1  S(33)              0.10372      35.62533      12.71200      11.88333
     2  O(17)              0.02195     -13.30508      -4.74758      -4.43810
     3  O(17)              0.05185     -31.42972     -11.21490     -10.48382
     4  H(1)               0.00081       3.62875       1.29483       1.21042
 --------------------------------------------------------
       Center         ----  Spin Dipole Couplings  ----
                      3XX-RR        3YY-RR        3ZZ-RR
 --------------------------------------------------------
     1   Atom       -1.507480     -1.614073      3.121553
     2   Atom       -0.242104     -0.203930      0.446034
     3   Atom       -0.767933     -0.769535      1.537468
     4   Atom       -0.007868      0.018931     -0.011063
 --------------------------------------------------------
                        XY            XZ            YZ
 --------------------------------------------------------
     1   Atom       -0.003244     -0.056220      0.194500
     2   Atom        0.007953      0.014483     -0.118621
     3   Atom        0.005708      0.079533      0.043225
     4   Atom        0.005317      0.001234      0.004816
 --------------------------------------------------------


 ---------------------------------------------------------------------------------
              Anisotropic Spin Dipole Couplings in Principal Axis System
 ---------------------------------------------------------------------------------

       Atom             a.u.   MegaHertz   Gauss  10(-4) cm-1        Axes

              Baa    -1.6221   -66.503   -23.730   -22.183  0.0082  0.9991 -0.0409
     1 S(33)  Bbb    -1.5082   -61.833   -22.064   -20.625  0.9999 -0.0077  0.0125
              Bcc     3.1302   128.336    45.793    42.808 -0.0121  0.0410  0.9991
 
              Baa    -0.2472    17.884     6.381     5.965  0.9065 -0.4125 -0.0895
     2 O(17)  Bbb    -0.2201    15.925     5.683     5.312  0.4217  0.8942  0.1501
              Bcc     0.4672   -33.809   -12.064   -11.278  0.0182 -0.1738  0.9846
 
              Baa    -0.7747    56.059    20.003    18.699  0.7205 -0.6933 -0.0118
     3 O(17)  Bbb    -0.7663    55.448    19.785    18.496  0.6925  0.7204 -0.0374
              Bcc     1.5410  -111.507   -39.789   -37.195  0.0345  0.0188  0.9992
 
              Baa    -0.0119    -6.333    -2.260    -2.112 -0.1283 -0.1316  0.9830
     4 H(1)   Bbb    -0.0089    -4.724    -1.686    -1.576  0.9739 -0.2037  0.0999
              Bcc     0.0207    11.057     3.945     3.688  0.1871  0.9702  0.1543
 

 ---------------------------------------------------------------------------------

 1\1\ CPUSERV-QCEXNOD02\SP\UwB97XD\6-311+G(3df)\H1O2S1(2)\ROOT\21-Aug-2
 025\0\\#sp wB97XD/6-311+G(3df)\\Optimizacion del hoso\\0,2\S,0,-0.1388
 43,-0.474008,0.016308\O,0,1.310132,0.253471,-0.04604\O,0,-1.185636,0.5
 45438,-0.020037\H,0,1.222021,1.216345,0.275181\\Version=EM64L-G09RevC.
 01\State=2-A\HF=-549.2189452\S2=0.755465\S2-1=0.\S2A=0.750021\RMSD=7.0
 05e-09\Dipole=0.5198605,0.0629329,0.2203176\Quadrupole=-2.1644236,2.08
 23476,0.082076,2.5917271,0.5360719,0.6741747\PG=C01 [X(H1O2S1)]\\@


 NOTHING MAKES A PERSON MORE PRODUCTIVE THAN THE LAST MINUTE.
 Job cpu time:  0 days  0 hours  4 minutes  0.4 seconds.
 File lengths (MBytes):  RWF=     21 Int=      0 D2E=      0 Chk=      2 Scr=      1
 Normal termination of Gaussian 09 at Thu Aug 21 00:36:28 2025.
