 Entering Gaussian System, Link 0=g09
 Initial command:
 /soft/g09.c01/g09/l1.exe /scr/macias/389597.qcexmaster_vib4_-0.05/Gau-25686.inp -scrdir=/scr/macias/389597.qcexmaster_vib4_-0.05/
 Entering Link 1 = /soft/g09.c01/g09/l1.exe PID=     25700.
  
 Copyright (c) 1988,1990,1992,1993,1995,1998,2003,2009,2011,
            Gaussian, Inc.  All Rights Reserved.
  
 This is part of the Gaussian(R) 09 program.  It is based on
 the Gaussian(R) 03 system (copyright 2003, Gaussian, Inc.),
 the Gaussian(R) 98 system (copyright 1998, Gaussian, Inc.),
 the Gaussian(R) 94 system (copyright 1995, Gaussian, Inc.),
 the Gaussian 92(TM) system (copyright 1992, Gaussian, Inc.),
 the Gaussian 90(TM) system (copyright 1990, Gaussian, Inc.),
 the Gaussian 88(TM) system (copyright 1988, Gaussian, Inc.),
 the Gaussian 86(TM) system (copyright 1986, Carnegie Mellon
 University), and the Gaussian 82(TM) system (copyright 1983,
 Carnegie Mellon University). Gaussian is a federally registered
 trademark of Gaussian, Inc.
  
 This software contains proprietary and confidential information,
 including trade secrets, belonging to Gaussian, Inc.
  
 This software is provided under written license and may be
 used, copied, transmitted, or stored only in accord with that
 written license.
  
 The following legend is applicable only to US Government
 contracts under FAR:
  
                    RESTRICTED RIGHTS LEGEND
  
 Use, reproduction and disclosure by the US Government is
 subject to restrictions as set forth in subparagraphs (a)
 and (c) of the Commercial Computer Software - Restricted
 Rights clause in FAR 52.227-19.
  
 Gaussian, Inc.
 340 Quinnipiac St., Bldg. 40, Wallingford CT 06492
  
  
 ---------------------------------------------------------------
 Warning -- This program may not be used in any manner that
 competes with the business of Gaussian, Inc. or will provide
 assistance to any competitor of Gaussian, Inc.  The licensee
 of this program is prohibited from giving any competitor of
 Gaussian, Inc. access to this program.  By using this program,
 the user acknowledges that Gaussian, Inc. is engaged in the
 business of creating and licensing software in the field of
 computational chemistry and represents and warrants to the
 licensee that it is not a competitor of Gaussian, Inc. and that
 it will not use this program in any manner prohibited above.
 ---------------------------------------------------------------
  

 Cite this work as:
 Gaussian 09, Revision C.01,
 M. J. Frisch, G. W. Trucks, H. B. Schlegel, G. E. Scuseria, 
 M. A. Robb, J. R. Cheeseman, G. Scalmani, V. Barone, B. Mennucci, 
 G. A. Petersson, H. Nakatsuji, M. Caricato, X. Li, H. P. Hratchian, 
 A. F. Izmaylov, J. Bloino, G. Zheng, J. L. Sonnenberg, M. Hada, 
 M. Ehara, K. Toyota, R. Fukuda, J. Hasegawa, M. Ishida, T. Nakajima, 
 Y. Honda, O. Kitao, H. Nakai, T. Vreven, J. A. Montgomery, Jr., 
 J. E. Peralta, F. Ogliaro, M. Bearpark, J. J. Heyd, E. Brothers, 
 K. N. Kudin, V. N. Staroverov, T. Keith, R. Kobayashi, J. Normand, 
 K. Raghavachari, A. Rendell, J. C. Burant, S. S. Iyengar, J. Tomasi, 
 M. Cossi, N. Rega, J. M. Millam, M. Klene, J. E. Knox, J. B. Cross, 
 V. Bakken, C. Adamo, J. Jaramillo, R. Gomperts, R. E. Stratmann, 
 O. Yazyev, A. J. Austin, R. Cammi, C. Pomelli, J. W. Ochterski, 
 R. L. Martin, K. Morokuma, V. G. Zakrzewski, G. A. Voth, 
 P. Salvador, J. J. Dannenberg, S. Dapprich, A. D. Daniels, 
 O. Farkas, J. B. Foresman, J. V. Ortiz, J. Cioslowski, 
 and D. J. Fox, Gaussian, Inc., Wallingford CT, 2010.
 
  
 -----  Compilado por  -----------------------------------------
  
  Servicio de Calculo | Servicio de Informatica U. de Valencia
     calculo@uv.es    |  E-46100 Burjassot (Valencia) SPAIN
  
 ---------------------------------------------------------------
  
 ******************************************
 Gaussian 09:  EM64L-G09RevC.01 23-Sep-2011
                20-Aug-2025 
 ******************************************
 %chk=opt_freq.chk
 %nproc=6
 Will use up to    6 processors via shared memory.
 %mem=20GB
 Default route:  CacheSize=131072
 -----------------------
 #sp wB97XD/6-311+G(3df)
 -----------------------
 1/4=131072,38=1/1;
 2/4=131072,12=2,17=6,18=5,40=1/2;
 3/4=131072,5=4,6=6,7=16,11=2,16=1,25=1,30=1,74=-58/1,2,3;
 4/4=131072/1;
 5/4=131072,5=2,38=5/2;
 6/4=131072,7=2,8=2,9=2,10=2,28=1/1;
 99/4=131072,5=1,9=1/99;
 ---------------------
 Optimizacion del hoso
 ---------------------
 Charge =  0 Multiplicity = 2
 Symbolic Z-Matrix:
 S                    -0.14084  -0.47501   0.01581 
 O                     1.30763   0.25947  -0.04404 
 O                    -1.18214   0.54394  -0.02004 
 H                     1.27352   1.17834   0.25118 
 
                          Input orientation:                          
 ---------------------------------------------------------------------
 Center     Atomic      Atomic             Coordinates (Angstroms)
 Number     Number       Type             X           Y           Z
 ---------------------------------------------------------------------
      1         16           0       -0.140843   -0.475008    0.015808
      2          8           0        1.307632    0.259471   -0.044040
      3          8           0       -1.182136    0.543938   -0.020037
      4          1           0        1.273521    1.178345    0.251181
 ---------------------------------------------------------------------
                    Distance matrix (angstroms):
                    1          2          3          4
     1  S    0.000000
     2  O    1.625153   0.000000
     3  O    1.457336   2.506081   0.000000
     4  H    2.188470   0.965737   2.550742   0.000000
 Stoichiometry    HO2S(2)
 Framework group  C1[X(HO2S)]
 Deg. of freedom     6
 Full point group                 C1      NOp   1
 Largest Abelian subgroup         C1      NOp   1
 Largest concise Abelian subgroup C1      NOp   1
                         Standard orientation:                         
 ---------------------------------------------------------------------
 Center     Atomic      Atomic             Coordinates (Angstroms)
 Number     Number       Type             X           Y           Z
 ---------------------------------------------------------------------
      1         16           0       -0.145113   -0.474108    0.015963
      2          8           0        1.308786    0.249538   -0.044329
      3          8           0       -1.178772    0.552611   -0.019001
      4          1           0        1.281693    1.168533    0.251242
 ---------------------------------------------------------------------
 Rotational constants (GHZ):     34.9296807      9.7022076      7.6158797
 Standard basis: 6-311+G(3df) (5D, 7F)
 There are   128 symmetry adapted basis functions of A   symmetry.
 Integral buffers will be    131072 words long.
 Raffenetti 2 integral format.
 Two-electron integral symmetry is turned on.
   128 basis functions,   193 primitive gaussians,   146 cartesian basis functions
    17 alpha electrons       16 beta electrons
       nuclear repulsion energy       111.5836022608 Hartrees.
 NAtoms=    4 NActive=    4 NUniq=    4 SFac= 1.00D+00 NAtFMM=   60 NAOKFM=F Big=F
 Nuclear repulsion after empirical dispersion term =      111.5833420740 Hartrees.
 One-electron integrals computed using PRISM.
 NBasis=   128 RedAO= T  NBF=   128
 NBsUse=   128 1.00D-06 NBFU=   128
 Harris functional with IExCor= 4639 diagonalized for initial guess.
 ExpMin= 4.05D-02 ExpMax= 9.34D+04 ExpMxC= 3.17D+03 IAcc=2 IRadAn=         4 AccDes= 0.00D+00
 HarFok:  IExCor= 4639 AccDes= 0.00D+00 IRadAn=         4 IDoV= 1
 ScaDFX=  1.000000  1.000000  1.000000  1.000000
 FoFCou: FMM=F IPFlag=           0 FMFlag=      100000 FMFlg1=           0
         NFxFlg=           0 DoJE=T BraDBF=F KetDBF=T FulRan=T
         Omega=  0.000000  0.000000  1.000000  0.000000  0.000000 ICntrl=     500 IOpCl=  0
         NMat0=    1 NMatS0=    1 NMatT0=    0 NMatD0=    1 NMtDS0=    0 NMtDT0=    0
         I1Cent=           4 NGrid=           0.
 Petite list used in FoFCou.
 Initial guess orbital symmetries:
 Alpha Orbitals:
       Occupied  (A) (A) (A) (A) (A) (A) (A) (A) (A) (A) (A) (A)
                 (A) (A) (A) (A) (A)
       Virtual   (A) (A) (A) (A) (A) (A) (A) (A) (A) (A) (A) (A)
                 (A) (A) (A) (A) (A) (A) (A) (A) (A) (A) (A) (A)
                 (A) (A) (A) (A) (A) (A) (A) (A) (A) (A) (A) (A)
                 (A) (A) (A) (A) (A) (A) (A) (A) (A) (A) (A) (A)
                 (A) (A) (A) (A) (A) (A) (A) (A) (A) (A) (A) (A)
                 (A) (A) (A) (A) (A) (A) (A) (A) (A) (A) (A) (A)
                 (A) (A) (A) (A) (A) (A) (A) (A) (A) (A) (A) (A)
                 (A) (A) (A) (A) (A) (A) (A) (A) (A) (A) (A) (A)
                 (A) (A) (A) (A) (A) (A) (A) (A) (A) (A) (A) (A)
                 (A) (A) (A)
 Beta  Orbitals:
       Occupied  (A) (A) (A) (A) (A) (A) (A) (A) (A) (A) (A) (A)
                 (A) (A) (A) (A)
       Virtual   (A) (A) (A) (A) (A) (A) (A) (A) (A) (A) (A) (A)
                 (A) (A) (A) (A) (A) (A) (A) (A) (A) (A) (A) (A)
                 (A) (A) (A) (A) (A) (A) (A) (A) (A) (A) (A) (A)
                 (A) (A) (A) (A) (A) (A) (A) (A) (A) (A) (A) (A)
                 (A) (A) (A) (A) (A) (A) (A) (A) (A) (A) (A) (A)
                 (A) (A) (A) (A) (A) (A) (A) (A) (A) (A) (A) (A)
                 (A) (A) (A) (A) (A) (A) (A) (A) (A) (A) (A) (A)
                 (A) (A) (A) (A) (A) (A) (A) (A) (A) (A) (A) (A)
                 (A) (A) (A) (A) (A) (A) (A) (A) (A) (A) (A) (A)
                 (A) (A) (A) (A)
 The electronic state of the initial guess is 2-A.
 Initial guess <Sx>= 0.0000 <Sy>= 0.0000 <Sz>= 0.5000 <S**2>= 0.7500 S= 0.5000
 Requested convergence on RMS density matrix=1.00D-08 within 128 cycles.
 Requested convergence on MAX density matrix=1.00D-06.
 Requested convergence on             energy=1.00D-06.
 No special actions if energy rises.
 FoFJK:  IHMeth= 1 ICntrl=     0 DoSepK=T KAlg= 1 I1Cent= 0 FoldK=F
 FoFJK:  IHMeth= 1 ICntrl=     0 DoSepK=T KAlg= 1 I1Cent= 0 FoldK=F
 FoFJK:  IHMeth= 1 ICntrl=     0 DoSepK=T KAlg= 1 I1Cent= 0 FoldK=F
 FoFJK:  IHMeth= 1 ICntrl=     0 DoSepK=T KAlg= 1 I1Cent= 0 FoldK=F
 FoFJK:  IHMeth= 1 ICntrl=     0 DoSepK=T KAlg= 1 I1Cent= 0 FoldK=F
 FoFJK:  IHMeth= 1 ICntrl=     0 DoSepK=T KAlg= 1 I1Cent= 0 FoldK=F
 FoFJK:  IHMeth= 1 ICntrl=     0 DoSepK=T KAlg= 1 I1Cent= 0 FoldK=F
 FoFJK:  IHMeth= 1 ICntrl=     0 DoSepK=T KAlg= 1 I1Cent= 0 FoldK=F
 FoFJK:  IHMeth= 1 ICntrl=     0 DoSepK=T KAlg= 1 I1Cent= 0 FoldK=F
 FoFJK:  IHMeth= 1 ICntrl=     0 DoSepK=T KAlg= 1 I1Cent= 0 FoldK=F
 FoFJK:  IHMeth= 1 ICntrl=     0 DoSepK=T KAlg= 1 I1Cent= 0 FoldK=F
 FoFJK:  IHMeth= 1 ICntrl=     0 DoSepK=T KAlg= 1 I1Cent= 0 FoldK=F
 FoFJK:  IHMeth= 1 ICntrl=     0 DoSepK=T KAlg= 1 I1Cent= 0 FoldK=F
 FoFJK:  IHMeth= 1 ICntrl=     0 DoSepK=T KAlg= 1 I1Cent= 0 FoldK=F
 FoFJK:  IHMeth= 1 ICntrl=     0 DoSepK=T KAlg= 1 I1Cent= 0 FoldK=F
 SCF Done:  E(UwB97XD) =  -549.221026111     A.U. after   15 cycles
             Convg  =    0.6454D-08             -V/T =  2.0016
 <Sx>= 0.0000 <Sy>= 0.0000 <Sz>= 0.5000 <S**2>= 0.7554 S= 0.5027
 <L.S>= 0.000000000000E+00
 Annihilation of the first spin contaminant:
 S**2 before annihilation     0.7554,   after     0.7500

 **********************************************************************

            Population analysis using the SCF density.

 **********************************************************************

 Orbital symmetries:
 Alpha Orbitals:
       Occupied  (A) (A) (A) (A) (A) (A) (A) (A) (A) (A) (A) (A)
                 (A) (A) (A) (A) (A)
       Virtual   (A) (A) (A) (A) (A) (A) (A) (A) (A) (A) (A) (A)
                 (A) (A) (A) (A) (A) (A) (A) (A) (A) (A) (A) (A)
                 (A) (A) (A) (A) (A) (A) (A) (A) (A) (A) (A) (A)
                 (A) (A) (A) (A) (A) (A) (A) (A) (A) (A) (A) (A)
                 (A) (A) (A) (A) (A) (A) (A) (A) (A) (A) (A) (A)
                 (A) (A) (A) (A) (A) (A) (A) (A) (A) (A) (A) (A)
                 (A) (A) (A) (A) (A) (A) (A) (A) (A) (A) (A) (A)
                 (A) (A) (A) (A) (A) (A) (A) (A) (A) (A) (A) (A)
                 (A) (A) (A) (A) (A) (A) (A) (A) (A) (A) (A) (A)
                 (A) (A) (A)
 Beta  Orbitals:
       Occupied  (A) (A) (A) (A) (A) (A) (A) (A) (A) (A) (A) (A)
                 (A) (A) (A) (A)
       Virtual   (A) (A) (A) (A) (A) (A) (A) (A) (A) (A) (A) (A)
                 (A) (A) (A) (A) (A) (A) (A) (A) (A) (A) (A) (A)
                 (A) (A) (A) (A) (A) (A) (A) (A) (A) (A) (A) (A)
                 (A) (A) (A) (A) (A) (A) (A) (A) (A) (A) (A) (A)
                 (A) (A) (A) (A) (A) (A) (A) (A) (A) (A) (A) (A)
                 (A) (A) (A) (A) (A) (A) (A) (A) (A) (A) (A) (A)
                 (A) (A) (A) (A) (A) (A) (A) (A) (A) (A) (A) (A)
                 (A) (A) (A) (A) (A) (A) (A) (A) (A) (A) (A) (A)
                 (A) (A) (A) (A) (A) (A) (A) (A) (A) (A) (A) (A)
                 (A) (A) (A) (A)
 The electronic state is 2-A.
 Alpha  occ. eigenvalues --  -89.14890 -19.31560 -19.28227  -8.17634  -6.12572
 Alpha  occ. eigenvalues --   -6.12326  -6.11968  -1.22332  -1.14918  -0.80221
 Alpha  occ. eigenvalues --   -0.63263  -0.57208  -0.56486  -0.50406  -0.47065
 Alpha  occ. eigenvalues --   -0.42461  -0.30819
 Alpha virt. eigenvalues --    0.04926   0.06772   0.07671   0.09393   0.11885
 Alpha virt. eigenvalues --    0.13430   0.18958   0.22616   0.24565   0.25164
 Alpha virt. eigenvalues --    0.26506   0.28274   0.30138   0.32566   0.32956
 Alpha virt. eigenvalues --    0.35474   0.36538   0.38090   0.39329   0.40481
 Alpha virt. eigenvalues --    0.41244   0.50928   0.56669   0.68464   0.78340
 Alpha virt. eigenvalues --    0.81058   0.86864   0.88108   0.93795   0.96276
 Alpha virt. eigenvalues --    0.96704   0.97708   0.99914   1.02002   1.05429
 Alpha virt. eigenvalues --    1.09117   1.10253   1.13743   1.14212   1.17556
 Alpha virt. eigenvalues --    1.22099   1.28534   1.33693   1.38062   1.40830
 Alpha virt. eigenvalues --    1.43756   1.66891   1.68212   1.74737   1.81470
 Alpha virt. eigenvalues --    1.92821   2.01951   2.08649   2.08956   2.13775
 Alpha virt. eigenvalues --    2.20441   2.31119   2.36624   2.43548   3.37563
 Alpha virt. eigenvalues --    3.42225   3.45169   3.47667   3.50021   3.55593
 Alpha virt. eigenvalues --    3.56850   3.64020   3.70648   3.72325   4.53260
 Alpha virt. eigenvalues --    4.57266   4.61896   4.70911   4.91163   4.98830
 Alpha virt. eigenvalues --    5.03501   5.04084   5.04493   5.06751   5.09249
 Alpha virt. eigenvalues --    5.09971   5.11365   5.16940   5.24417   5.24700
 Alpha virt. eigenvalues --    5.42658   5.48283   5.53727   5.57993   5.68101
 Alpha virt. eigenvalues --    5.71420   5.85800   6.00189   6.58939   8.78504
 Alpha virt. eigenvalues --   14.32533  14.35664  14.37287  14.39218  14.41381
 Alpha virt. eigenvalues --   14.45782  14.47707  14.49505  14.62452  14.71088
 Alpha virt. eigenvalues --   17.36252  17.61647  17.91006  50.02793  50.11346
 Alpha virt. eigenvalues --  189.83595
  Beta  occ. eigenvalues --  -89.14505 -19.31318 -19.27344  -8.17291  -6.12345
  Beta  occ. eigenvalues --   -6.11760  -6.11089  -1.21166  -1.13490  -0.77987
  Beta  occ. eigenvalues --   -0.61883  -0.56340  -0.53049  -0.48436  -0.43404
  Beta  occ. eigenvalues --   -0.41270
  Beta virt. eigenvalues --   -0.03756   0.05406   0.07115   0.08115   0.09999
  Beta virt. eigenvalues --    0.12764   0.14239   0.19251   0.22862   0.24891
  Beta virt. eigenvalues --    0.25358   0.27010   0.28634   0.30459   0.32704
  Beta virt. eigenvalues --    0.34121   0.35733   0.36990   0.38774   0.40670
  Beta virt. eigenvalues --    0.41177   0.41834   0.51522   0.56881   0.68976
  Beta virt. eigenvalues --    0.78869   0.81377   0.87308   0.88945   0.94376
  Beta virt. eigenvalues --    0.96683   0.97642   0.98711   1.00729   1.02877
  Beta virt. eigenvalues --    1.06201   1.09996   1.12272   1.14036   1.14697
  Beta virt. eigenvalues --    1.18373   1.23387   1.28995   1.35104   1.38869
  Beta virt. eigenvalues --    1.41158   1.44121   1.69926   1.70252   1.76361
  Beta virt. eigenvalues --    1.83015   1.93625   2.03394   2.09374   2.11291
  Beta virt. eigenvalues --    2.14114   2.20927   2.31584   2.37510   2.44078
  Beta virt. eigenvalues --    3.38451   3.43712   3.47264   3.48892   3.51408
  Beta virt. eigenvalues --    3.57023   3.58481   3.64767   3.71539   3.72933
  Beta virt. eigenvalues --    4.53796   4.57416   4.62773   4.71403   4.91747
  Beta virt. eigenvalues --    4.99381   5.04255   5.04950   5.05127   5.08028
  Beta virt. eigenvalues --    5.11772   5.12910   5.13486   5.17787   5.25328
  Beta virt. eigenvalues --    5.26040   5.43256   5.48790   5.54499   5.58725
  Beta virt. eigenvalues --    5.68890   5.72048   5.87493   6.00702   6.59346
  Beta virt. eigenvalues --    8.78866  14.33813  14.37948  14.40421  14.41143
  Beta virt. eigenvalues --   14.43716  14.48249  14.49223  14.50927  14.63058
  Beta virt. eigenvalues --   14.73104  17.37643  17.61938  17.91328  50.03021
  Beta virt. eigenvalues --   50.12129 189.83899
          Condensed to atoms (all electrons):
              1          2          3          4
     1  S   15.354450  -0.008746   0.138959   0.009736
     2  O   -0.008746   8.414079   0.005277   0.209331
     3  O    0.138959   0.005277   8.236160  -0.001271
     4  H    0.009736   0.209331  -0.001271   0.288739
 Mulliken atomic charges:
              1
     1  S    0.505601
     2  O   -0.619941
     3  O   -0.379125
     4  H    0.493465
 Sum of Mulliken atomic charges =   0.00000
 Mulliken charges with hydrogens summed into heavy atoms:
              1
     1  S    0.505601
     2  O   -0.126476
     3  O   -0.379125
 Sum of Mulliken charges with hydrogens summed into heavy atoms =   0.00000
          Atomic-Atomic Spin Densities.
              1          2          3          4
     1  S    0.943826  -0.102865  -0.198577  -0.000507
     2  O   -0.102865   0.147256   0.019122  -0.004054
     3  O   -0.198577   0.019122   0.477922  -0.000587
     4  H   -0.000507  -0.004054  -0.000587   0.005929
 Mulliken atomic spin densities:
              1
     1  S    0.641878
     2  O    0.059459
     3  O    0.297881
     4  H    0.000782
 Sum of Mulliken atomic spin densities =   1.00000
 Electronic spatial extent (au):  <R**2>=            177.0388
 Charge=              0.0000 electrons
 Dipole moment (field-independent basis, Debye):
    X=              1.3264    Y=              0.0973    Z=              0.5325  Tot=              1.4326
 Quadrupole moment (field-independent basis, Debye-Ang):
   XX=            -26.3733   YY=            -21.0645   ZZ=            -23.5916
   XY=              3.6022   XZ=              0.7260   YZ=              0.8238
 Traceless Quadrupole moment (field-independent basis, Debye-Ang):
   XX=             -2.6968   YY=              2.6120   ZZ=              0.0849
   XY=              3.6022   XZ=              0.7260   YZ=              0.8238
 Octapole moment (field-independent basis, Debye-Ang**2):
  XXX=              1.8960  YYY=              5.2186  ZZZ=             -0.0081  XYY=              4.7607
  XXY=              1.5454  XXZ=              0.9442  XZZ=              0.1345  YZZ=              1.2210
  YYZ=              0.9544  XYZ=              1.0281
 Hexadecapole moment (field-independent basis, Debye-Ang**3):
 XXXX=           -140.0417 YYYY=            -51.6914 ZZZZ=            -24.9131 XXXY=              7.0729
 XXXZ=              1.3993 YYYX=              6.5408 YYYZ=              1.3685 ZZZX=              0.4016
 ZZZY=              0.5794 XXYY=            -26.0965 XXZZ=            -26.7965 YYZZ=            -13.8545
 XXYZ=              1.4775 YYXZ=              1.2419 ZZXY=              0.4836
 N-N= 1.115833420740D+02 E-N=-2.282406446552D+03  KE= 8.210528730474D+02
                          Isotropic Fermi Contact Couplings
        Atom                 a.u.       MegaHertz       Gauss      10(-4) cm-1
     1  S(33)              0.10242      35.17807      12.55241      11.73414
     2  O(17)              0.02121     -12.86000      -4.58877      -4.28963
     3  O(17)              0.05211     -31.59023     -11.27218     -10.53737
     4  H(1)               0.00053       2.38380       0.85060       0.79515
 --------------------------------------------------------
       Center         ----  Spin Dipole Couplings  ----
                      3XX-RR        3YY-RR        3ZZ-RR
 --------------------------------------------------------
     1   Atom       -1.504863     -1.614382      3.119245
     2   Atom       -0.237010     -0.202416      0.439426
     3   Atom       -0.771261     -0.774129      1.545390
     4   Atom       -0.009515      0.020281     -0.010766
 --------------------------------------------------------
                        XY            XZ            YZ
 --------------------------------------------------------
     1   Atom       -0.004561     -0.067186      0.160121
     2   Atom        0.009215      0.009209     -0.109763
     3   Atom        0.005341      0.073099      0.035742
     4   Atom        0.006856      0.001503      0.004669
 --------------------------------------------------------


 ---------------------------------------------------------------------------------
              Anisotropic Spin Dipole Couplings in Principal Axis System
 ---------------------------------------------------------------------------------

       Atom             a.u.   MegaHertz   Gauss  10(-4) cm-1        Axes

              Baa    -1.6198   -66.412   -23.697   -22.153  0.0201  0.9992 -0.0335
     1 S(33)  Bbb    -1.5058   -61.736   -22.029   -20.593  0.9997 -0.0196  0.0152
              Bcc     3.1256   128.148    45.726    42.746 -0.0145  0.0338  0.9993
 
              Baa    -0.2423    17.532     6.256     5.848  0.8979 -0.4326 -0.0818
     2 O(17)  Bbb    -0.2155    15.591     5.563     5.201  0.4402  0.8866  0.1424
              Bcc     0.4578   -33.123   -11.819   -11.049  0.0109 -0.1639  0.9864
 
              Baa    -0.7784    56.323    20.097    18.787 -0.6590  0.7521  0.0092
     3 O(17)  Bbb    -0.7699    55.708    19.878    18.582  0.7515  0.6589 -0.0339
              Bcc     1.5482  -112.030   -39.975   -37.369  0.0315  0.0155  0.9994
 
              Baa    -0.0118    -6.280    -2.241    -2.095 -0.5392 -0.0073  0.8422
     4 H(1)   Bbb    -0.0107    -5.725    -2.043    -1.910  0.8146 -0.2583  0.5193
              Bcc     0.0225    12.005     4.284     4.004  0.2137  0.9660  0.1453
 

 ---------------------------------------------------------------------------------

 1\1\ CPUSERV-QCEXNOD15\SP\UwB97XD\6-311+G(3df)\H1O2S1(2)\VPEREZ\20-Aug
 -2025\0\\#sp wB97XD/6-311+G(3df)\\Optimizacion del hoso\\0,2\S,0,-0.14
 0843,-0.475008,0.015808\O,0,1.307632,0.259471,-0.04404\O,0,-1.182136,0
 .543938,-0.020037\H,0,1.273521,1.178345,0.251181\\Version=EM64L-G09Rev
 C.01\State=2-A\HF=-549.2210261\S2=0.755446\S2-1=0.\S2A=0.750021\RMSD=6
 .454e-09\Dipole=0.5214452,0.0422508,0.2097386\Quadrupole=-2.0453863,1.
 9822147,0.0631716,2.6482051,0.5331666,0.6171069\PG=C01 [X(H1O2S1)]\\@


 NEVER LOSE YOUR IGNORANCE, IT CAN'T BE REPLACED.
   -- ANDY CAPP
 Job cpu time:  0 days  0 hours  5 minutes 35.1 seconds.
 File lengths (MBytes):  RWF=     21 Int=      0 D2E=      0 Chk=      2 Scr=      1
 Normal termination of Gaussian 09 at Wed Aug 20 22:59:58 2025.
