 Entering Gaussian System, Link 0=g09
 Initial command:
 /soft/g09.c01/g09/l1.exe /scr/macias/389569.qcexmaster_vib1_-0.10/Gau-15255.inp -scrdir=/scr/macias/389569.qcexmaster_vib1_-0.10/
 Entering Link 1 = /soft/g09.c01/g09/l1.exe PID=     15259.
  
 Copyright (c) 1988,1990,1992,1993,1995,1998,2003,2009,2011,
            Gaussian, Inc.  All Rights Reserved.
  
 This is part of the Gaussian(R) 09 program.  It is based on
 the Gaussian(R) 03 system (copyright 2003, Gaussian, Inc.),
 the Gaussian(R) 98 system (copyright 1998, Gaussian, Inc.),
 the Gaussian(R) 94 system (copyright 1995, Gaussian, Inc.),
 the Gaussian 92(TM) system (copyright 1992, Gaussian, Inc.),
 the Gaussian 90(TM) system (copyright 1990, Gaussian, Inc.),
 the Gaussian 88(TM) system (copyright 1988, Gaussian, Inc.),
 the Gaussian 86(TM) system (copyright 1986, Carnegie Mellon
 University), and the Gaussian 82(TM) system (copyright 1983,
 Carnegie Mellon University). Gaussian is a federally registered
 trademark of Gaussian, Inc.
  
 This software contains proprietary and confidential information,
 including trade secrets, belonging to Gaussian, Inc.
  
 This software is provided under written license and may be
 used, copied, transmitted, or stored only in accord with that
 written license.
  
 The following legend is applicable only to US Government
 contracts under FAR:
  
                    RESTRICTED RIGHTS LEGEND
  
 Use, reproduction and disclosure by the US Government is
 subject to restrictions as set forth in subparagraphs (a)
 and (c) of the Commercial Computer Software - Restricted
 Rights clause in FAR 52.227-19.
  
 Gaussian, Inc.
 340 Quinnipiac St., Bldg. 40, Wallingford CT 06492
  
  
 ---------------------------------------------------------------
 Warning -- This program may not be used in any manner that
 competes with the business of Gaussian, Inc. or will provide
 assistance to any competitor of Gaussian, Inc.  The licensee
 of this program is prohibited from giving any competitor of
 Gaussian, Inc. access to this program.  By using this program,
 the user acknowledges that Gaussian, Inc. is engaged in the
 business of creating and licensing software in the field of
 computational chemistry and represents and warrants to the
 licensee that it is not a competitor of Gaussian, Inc. and that
 it will not use this program in any manner prohibited above.
 ---------------------------------------------------------------
  

 Cite this work as:
 Gaussian 09, Revision C.01,
 M. J. Frisch, G. W. Trucks, H. B. Schlegel, G. E. Scuseria, 
 M. A. Robb, J. R. Cheeseman, G. Scalmani, V. Barone, B. Mennucci, 
 G. A. Petersson, H. Nakatsuji, M. Caricato, X. Li, H. P. Hratchian, 
 A. F. Izmaylov, J. Bloino, G. Zheng, J. L. Sonnenberg, M. Hada, 
 M. Ehara, K. Toyota, R. Fukuda, J. Hasegawa, M. Ishida, T. Nakajima, 
 Y. Honda, O. Kitao, H. Nakai, T. Vreven, J. A. Montgomery, Jr., 
 J. E. Peralta, F. Ogliaro, M. Bearpark, J. J. Heyd, E. Brothers, 
 K. N. Kudin, V. N. Staroverov, T. Keith, R. Kobayashi, J. Normand, 
 K. Raghavachari, A. Rendell, J. C. Burant, S. S. Iyengar, J. Tomasi, 
 M. Cossi, N. Rega, J. M. Millam, M. Klene, J. E. Knox, J. B. Cross, 
 V. Bakken, C. Adamo, J. Jaramillo, R. Gomperts, R. E. Stratmann, 
 O. Yazyev, A. J. Austin, R. Cammi, C. Pomelli, J. W. Ochterski, 
 R. L. Martin, K. Morokuma, V. G. Zakrzewski, G. A. Voth, 
 P. Salvador, J. J. Dannenberg, S. Dapprich, A. D. Daniels, 
 O. Farkas, J. B. Foresman, J. V. Ortiz, J. Cioslowski, 
 and D. J. Fox, Gaussian, Inc., Wallingford CT, 2010.
 
  
 -----  Compilado por  -----------------------------------------
  
  Servicio de Calculo | Servicio de Informatica U. de Valencia
     calculo@uv.es    |  E-46100 Burjassot (Valencia) SPAIN
  
 ---------------------------------------------------------------
  
 ******************************************
 Gaussian 09:  EM64L-G09RevC.01 23-Sep-2011
                21-Aug-2025 
 ******************************************
 %chk=opt_freq.chk
 %nproc=6
 Will use up to    6 processors via shared memory.
 %mem=20GB
 Default route:  CacheSize=131072
 -----------------------
 #sp wB97XD/6-311+G(3df)
 -----------------------
 1/4=131072,38=1/1;
 2/4=131072,12=2,17=6,18=5,40=1/2;
 3/4=131072,5=4,6=6,7=16,11=2,16=1,25=1,30=1,74=-58/1,2,3;
 4/4=131072/1;
 5/4=131072,5=2,38=5/2;
 6/4=131072,7=2,8=2,9=2,10=2,28=1/1;
 99/4=131072,5=1,9=1/99;
 ---------------------
 Optimizacion del hoso
 ---------------------
 Charge =  0 Multiplicity = 2
 Symbolic Z-Matrix:
 S                    -0.13884  -0.47601   0.01331 
 O                     1.31013   0.25647  -0.03704 
 O                    -1.18264   0.54744  -0.01604 
 H                     1.19652   1.19885   0.16968 
 
                          Input orientation:                          
 ---------------------------------------------------------------------
 Center     Atomic      Atomic             Coordinates (Angstroms)
 Number     Number       Type             X           Y           Z
 ---------------------------------------------------------------------
      1         16           0       -0.138843   -0.476008    0.013308
      2          8           0        1.310132    0.256471   -0.037040
      3          8           0       -1.182636    0.547438   -0.016037
      4          1           0        1.196521    1.198845    0.169681
 ---------------------------------------------------------------------
                    Distance matrix (angstroms):
                    1          2          3          4
     1  S    0.000000
     2  O    1.624373   0.000000
     3  O    1.462124   2.509780   0.000000
     4  H    2.147739   0.971447   2.473704   0.000000
 Stoichiometry    HO2S(2)
 Framework group  C1[X(HO2S)]
 Deg. of freedom     6
 Full point group                 C1      NOp   1
 Largest Abelian subgroup         C1      NOp   1
 Largest concise Abelian subgroup C1      NOp   1
                         Standard orientation:                         
 ---------------------------------------------------------------------
 Center     Atomic      Atomic             Coordinates (Angstroms)
 Number     Number       Type             X           Y           Z
 ---------------------------------------------------------------------
      1         16           0       -0.138744   -0.476498    0.011604
      2          8           0        1.310374    0.256174   -0.031240
      3          8           0       -1.182425    0.547149   -0.014523
      4          1           0        1.196311    1.197390    0.180446
 ---------------------------------------------------------------------
 Rotational constants (GHZ):     34.8055953      9.7241515      7.6123794
 Standard basis: 6-311+G(3df) (5D, 7F)
 There are   128 symmetry adapted basis functions of A   symmetry.
 Integral buffers will be    131072 words long.
 Raffenetti 2 integral format.
 Two-electron integral symmetry is turned on.
   128 basis functions,   193 primitive gaussians,   146 cartesian basis functions
    17 alpha electrons       16 beta electrons
       nuclear repulsion energy       111.5307540207 Hartrees.
 NAtoms=    4 NActive=    4 NUniq=    4 SFac= 1.00D+00 NAtFMM=   60 NAOKFM=F Big=F
 Nuclear repulsion after empirical dispersion term =      111.5305084662 Hartrees.
 One-electron integrals computed using PRISM.
 NBasis=   128 RedAO= T  NBF=   128
 NBsUse=   128 1.00D-06 NBFU=   128
 Harris functional with IExCor= 4639 diagonalized for initial guess.
 ExpMin= 4.05D-02 ExpMax= 9.34D+04 ExpMxC= 3.17D+03 IAcc=2 IRadAn=         4 AccDes= 0.00D+00
 HarFok:  IExCor= 4639 AccDes= 0.00D+00 IRadAn=         4 IDoV= 1
 ScaDFX=  1.000000  1.000000  1.000000  1.000000
 FoFCou: FMM=F IPFlag=           0 FMFlag=      100000 FMFlg1=           0
         NFxFlg=           0 DoJE=T BraDBF=F KetDBF=T FulRan=T
         Omega=  0.000000  0.000000  1.000000  0.000000  0.000000 ICntrl=     500 IOpCl=  0
         NMat0=    1 NMatS0=    1 NMatT0=    0 NMatD0=    1 NMtDS0=    0 NMtDT0=    0
         I1Cent=           4 NGrid=           0.
 Petite list used in FoFCou.
 Initial guess orbital symmetries:
 Alpha Orbitals:
       Occupied  (A) (A) (A) (A) (A) (A) (A) (A) (A) (A) (A) (A)
                 (A) (A) (A) (A) (A)
       Virtual   (A) (A) (A) (A) (A) (A) (A) (A) (A) (A) (A) (A)
                 (A) (A) (A) (A) (A) (A) (A) (A) (A) (A) (A) (A)
                 (A) (A) (A) (A) (A) (A) (A) (A) (A) (A) (A) (A)
                 (A) (A) (A) (A) (A) (A) (A) (A) (A) (A) (A) (A)
                 (A) (A) (A) (A) (A) (A) (A) (A) (A) (A) (A) (A)
                 (A) (A) (A) (A) (A) (A) (A) (A) (A) (A) (A) (A)
                 (A) (A) (A) (A) (A) (A) (A) (A) (A) (A) (A) (A)
                 (A) (A) (A) (A) (A) (A) (A) (A) (A) (A) (A) (A)
                 (A) (A) (A) (A) (A) (A) (A) (A) (A) (A) (A) (A)
                 (A) (A) (A)
 Beta  Orbitals:
       Occupied  (A) (A) (A) (A) (A) (A) (A) (A) (A) (A) (A) (A)
                 (A) (A) (A) (A)
       Virtual   (A) (A) (A) (A) (A) (A) (A) (A) (A) (A) (A) (A)
                 (A) (A) (A) (A) (A) (A) (A) (A) (A) (A) (A) (A)
                 (A) (A) (A) (A) (A) (A) (A) (A) (A) (A) (A) (A)
                 (A) (A) (A) (A) (A) (A) (A) (A) (A) (A) (A) (A)
                 (A) (A) (A) (A) (A) (A) (A) (A) (A) (A) (A) (A)
                 (A) (A) (A) (A) (A) (A) (A) (A) (A) (A) (A) (A)
                 (A) (A) (A) (A) (A) (A) (A) (A) (A) (A) (A) (A)
                 (A) (A) (A) (A) (A) (A) (A) (A) (A) (A) (A) (A)
                 (A) (A) (A) (A) (A) (A) (A) (A) (A) (A) (A) (A)
                 (A) (A) (A) (A)
 The electronic state of the initial guess is 2-A.
 Initial guess <Sx>= 0.0000 <Sy>= 0.0000 <Sz>= 0.5000 <S**2>= 0.7500 S= 0.5000
 Requested convergence on RMS density matrix=1.00D-08 within 128 cycles.
 Requested convergence on MAX density matrix=1.00D-06.
 Requested convergence on             energy=1.00D-06.
 No special actions if energy rises.
 FoFJK:  IHMeth= 1 ICntrl=     0 DoSepK=T KAlg= 1 I1Cent= 0 FoldK=F
 FoFJK:  IHMeth= 1 ICntrl=     0 DoSepK=T KAlg= 1 I1Cent= 0 FoldK=F
 FoFJK:  IHMeth= 1 ICntrl=     0 DoSepK=T KAlg= 1 I1Cent= 0 FoldK=F
 FoFJK:  IHMeth= 1 ICntrl=     0 DoSepK=T KAlg= 1 I1Cent= 0 FoldK=F
 FoFJK:  IHMeth= 1 ICntrl=     0 DoSepK=T KAlg= 1 I1Cent= 0 FoldK=F
 FoFJK:  IHMeth= 1 ICntrl=     0 DoSepK=T KAlg= 1 I1Cent= 0 FoldK=F
 FoFJK:  IHMeth= 1 ICntrl=     0 DoSepK=T KAlg= 1 I1Cent= 0 FoldK=F
 FoFJK:  IHMeth= 1 ICntrl=     0 DoSepK=T KAlg= 1 I1Cent= 0 FoldK=F
 FoFJK:  IHMeth= 1 ICntrl=     0 DoSepK=T KAlg= 1 I1Cent= 0 FoldK=F
 FoFJK:  IHMeth= 1 ICntrl=     0 DoSepK=T KAlg= 1 I1Cent= 0 FoldK=F
 FoFJK:  IHMeth= 1 ICntrl=     0 DoSepK=T KAlg= 1 I1Cent= 0 FoldK=F
 FoFJK:  IHMeth= 1 ICntrl=     0 DoSepK=T KAlg= 1 I1Cent= 0 FoldK=F
 FoFJK:  IHMeth= 1 ICntrl=     0 DoSepK=T KAlg= 1 I1Cent= 0 FoldK=F
 FoFJK:  IHMeth= 1 ICntrl=     0 DoSepK=T KAlg= 1 I1Cent= 0 FoldK=F
 FoFJK:  IHMeth= 1 ICntrl=     0 DoSepK=T KAlg= 1 I1Cent= 0 FoldK=F
 SCF Done:  E(UwB97XD) =  -549.221234122     A.U. after   15 cycles
             Convg  =    0.5918D-08             -V/T =  2.0017
 <Sx>= 0.0000 <Sy>= 0.0000 <Sz>= 0.5000 <S**2>= 0.7555 S= 0.5027
 <L.S>= 0.000000000000E+00
 Annihilation of the first spin contaminant:
 S**2 before annihilation     0.7555,   after     0.7500

 **********************************************************************

            Population analysis using the SCF density.

 **********************************************************************

 Orbital symmetries:
 Alpha Orbitals:
       Occupied  (A) (A) (A) (A) (A) (A) (A) (A) (A) (A) (A) (A)
                 (A) (A) (A) (A) (A)
       Virtual   (A) (A) (A) (A) (A) (A) (A) (A) (A) (A) (A) (A)
                 (A) (A) (A) (A) (A) (A) (A) (A) (A) (A) (A) (A)
                 (A) (A) (A) (A) (A) (A) (A) (A) (A) (A) (A) (A)
                 (A) (A) (A) (A) (A) (A) (A) (A) (A) (A) (A) (A)
                 (A) (A) (A) (A) (A) (A) (A) (A) (A) (A) (A) (A)
                 (A) (A) (A) (A) (A) (A) (A) (A) (A) (A) (A) (A)
                 (A) (A) (A) (A) (A) (A) (A) (A) (A) (A) (A) (A)
                 (A) (A) (A) (A) (A) (A) (A) (A) (A) (A) (A) (A)
                 (A) (A) (A) (A) (A) (A) (A) (A) (A) (A) (A) (A)
                 (A) (A) (A)
 Beta  Orbitals:
       Occupied  (A) (A) (A) (A) (A) (A) (A) (A) (A) (A) (A) (A)
                 (A) (A) (A) (A)
       Virtual   (A) (A) (A) (A) (A) (A) (A) (A) (A) (A) (A) (A)
                 (A) (A) (A) (A) (A) (A) (A) (A) (A) (A) (A) (A)
                 (A) (A) (A) (A) (A) (A) (A) (A) (A) (A) (A) (A)
                 (A) (A) (A) (A) (A) (A) (A) (A) (A) (A) (A) (A)
                 (A) (A) (A) (A) (A) (A) (A) (A) (A) (A) (A) (A)
                 (A) (A) (A) (A) (A) (A) (A) (A) (A) (A) (A) (A)
                 (A) (A) (A) (A) (A) (A) (A) (A) (A) (A) (A) (A)
                 (A) (A) (A) (A) (A) (A) (A) (A) (A) (A) (A) (A)
                 (A) (A) (A) (A) (A) (A) (A) (A) (A) (A) (A) (A)
                 (A) (A) (A) (A)
 The electronic state is 2-A.
 Alpha  occ. eigenvalues --  -89.14922 -19.31856 -19.28305  -8.17677  -6.12608
 Alpha  occ. eigenvalues --   -6.12370  -6.12014  -1.22476  -1.14891  -0.79988
 Alpha  occ. eigenvalues --   -0.63169  -0.57382  -0.56697  -0.50423  -0.47364
 Alpha  occ. eigenvalues --   -0.42499  -0.30807
 Alpha virt. eigenvalues --    0.05012   0.06754   0.07577   0.09391   0.11684
 Alpha virt. eigenvalues --    0.13220   0.19098   0.22579   0.24481   0.24885
 Alpha virt. eigenvalues --    0.26547   0.27926   0.30351   0.32454   0.32937
 Alpha virt. eigenvalues --    0.35531   0.36685   0.37761   0.39047   0.40305
 Alpha virt. eigenvalues --    0.41254   0.51100   0.56304   0.68666   0.78080
 Alpha virt. eigenvalues --    0.80312   0.87041   0.87921   0.94343   0.96212
 Alpha virt. eigenvalues --    0.96879   0.97276   1.00178   1.02512   1.05227
 Alpha virt. eigenvalues --    1.09093   1.10043   1.12781   1.13961   1.17288
 Alpha virt. eigenvalues --    1.22158   1.29009   1.33332   1.38193   1.40095
 Alpha virt. eigenvalues --    1.42941   1.66808   1.68150   1.74778   1.80355
 Alpha virt. eigenvalues --    1.92626   2.02018   2.08295   2.08738   2.13009
 Alpha virt. eigenvalues --    2.20189   2.31237   2.36454   2.45727   3.36803
 Alpha virt. eigenvalues --    3.42140   3.45234   3.47731   3.49824   3.55582
 Alpha virt. eigenvalues --    3.56557   3.63402   3.70423   3.71549   4.53286
 Alpha virt. eigenvalues --    4.57213   4.61462   4.71008   4.91118   4.98445
 Alpha virt. eigenvalues --    5.03188   5.03656   5.04514   5.06700   5.09186
 Alpha virt. eigenvalues --    5.09829   5.11200   5.16562   5.24299   5.24917
 Alpha virt. eigenvalues --    5.41777   5.46759   5.53908   5.57159   5.66804
 Alpha virt. eigenvalues --    5.71421   5.85146   6.00260   6.58876   8.77462
 Alpha virt. eigenvalues --   14.32000  14.35635  14.37251  14.39210  14.41176
 Alpha virt. eigenvalues --   14.45578  14.46663  14.49189  14.62444  14.70896
 Alpha virt. eigenvalues --   17.36124  17.61889  17.90001  50.02568  50.11099
 Alpha virt. eigenvalues --  189.82260
  Beta  occ. eigenvalues --  -89.14536 -19.31597 -19.27432  -8.17332  -6.12380
  Beta  occ. eigenvalues --   -6.11804  -6.11127  -1.21333  -1.13426  -0.77712
  Beta  occ. eigenvalues --   -0.61901  -0.56654  -0.52996  -0.48749  -0.43392
  Beta  occ. eigenvalues --   -0.41304
  Beta virt. eigenvalues --   -0.03766   0.05481   0.07098   0.08036   0.09993
  Beta virt. eigenvalues --    0.12685   0.13873   0.19405   0.22809   0.24826
  Beta virt. eigenvalues --    0.25052   0.27097   0.28285   0.30583   0.32604
  Beta virt. eigenvalues --    0.34148   0.35778   0.37155   0.38566   0.40513
  Beta virt. eigenvalues --    0.40975   0.41648   0.51706   0.56491   0.69169
  Beta virt. eigenvalues --    0.78639   0.80672   0.87399   0.88812   0.94958
  Beta virt. eigenvalues --    0.96550   0.97699   0.98438   1.01071   1.03222
  Beta virt. eigenvalues --    1.06023   1.09998   1.12040   1.13193   1.14348
  Beta virt. eigenvalues --    1.18108   1.23477   1.29453   1.34771   1.38972
  Beta virt. eigenvalues --    1.40452   1.43276   1.69918   1.70136   1.76410
  Beta virt. eigenvalues --    1.81944   1.93379   2.03452   2.08973   2.11093
  Beta virt. eigenvalues --    2.13391   2.20637   2.31719   2.37376   2.46198
  Beta virt. eigenvalues --    3.37756   3.43588   3.47402   3.48893   3.51243
  Beta virt. eigenvalues --    3.57024   3.58191   3.64092   3.71418   3.72083
  Beta virt. eigenvalues --    4.53829   4.57367   4.62329   4.71490   4.91703
  Beta virt. eigenvalues --    4.99047   5.03852   5.04715   5.05129   5.07970
  Beta virt. eigenvalues --    5.11727   5.12750   5.13261   5.17376   5.25224
  Beta virt. eigenvalues --    5.26205   5.42396   5.47280   5.54710   5.57925
  Beta virt. eigenvalues --    5.67560   5.72074   5.86829   6.00760   6.59286
  Beta virt. eigenvalues --    8.77823  14.33371  14.37908  14.40360  14.41131
  Beta virt. eigenvalues --   14.43503  14.47208  14.49276  14.50409  14.63055
  Beta virt. eigenvalues --   14.72890  17.37522  17.62181  17.90322  50.02812
  Beta virt. eigenvalues --   50.11872 189.82565
          Condensed to atoms (all electrons):
              1          2          3          4
     1  S   15.355957  -0.015172   0.138820   0.012069
     2  O   -0.015172   8.418851   0.005611   0.208639
     3  O    0.138820   0.005611   8.240397  -0.000046
     4  H    0.012069   0.208639  -0.000046   0.284951
 Mulliken atomic charges:
              1
     1  S    0.508325
     2  O   -0.617930
     3  O   -0.384782
     4  H    0.494387
 Sum of Mulliken atomic charges =   0.00000
 Mulliken charges with hydrogens summed into heavy atoms:
              1
     1  S    0.508325
     2  O   -0.123543
     3  O   -0.384782
 Sum of Mulliken charges with hydrogens summed into heavy atoms =   0.00000
          Atomic-Atomic Spin Densities.
              1          2          3          4
     1  S    0.949888  -0.109782  -0.198648   0.001638
     2  O   -0.109782   0.157279   0.020207  -0.003778
     3  O   -0.198648   0.020207   0.473348  -0.001143
     4  H    0.001638  -0.003778  -0.001143   0.002500
 Mulliken atomic spin densities:
              1
     1  S    0.643095
     2  O    0.063925
     3  O    0.293763
     4  H   -0.000783
 Sum of Mulliken atomic spin densities =   1.00000
 Electronic spatial extent (au):  <R**2>=            176.9233
 Charge=              0.0000 electrons
 Dipole moment (field-independent basis, Debye):
    X=              1.2566    Y=              0.1118    Z=              0.3739  Tot=              1.3158
 Quadrupole moment (field-independent basis, Debye-Ang):
   XX=            -26.7151   YY=            -20.9238   ZZ=            -23.6982
   XY=              3.3817   XZ=              0.4693   YZ=              0.6024
 Traceless Quadrupole moment (field-independent basis, Debye-Ang):
   XX=             -2.9361   YY=              2.8552   ZZ=              0.0808
   XY=              3.3817   XZ=              0.4693   YZ=              0.6024
 Octapole moment (field-independent basis, Debye-Ang**2):
  XXX=              1.3156  YYY=              5.4848  ZZZ=             -0.0314  XYY=              4.6770
  XXY=              0.9575  XXZ=              0.5586  XZZ=              0.0197  YZZ=              1.1217
  YYZ=              0.7168  XYZ=              0.7096
 Hexadecapole moment (field-independent basis, Debye-Ang**3):
 XXXX=           -140.6717 YYYY=            -51.5212 ZZZZ=            -24.8530 XXXY=              5.7860
 XXXZ=              0.7604 YYYX=              6.4585 YYYZ=              1.0341 ZZZX=              0.2398
 ZZZY=              0.4006 XXYY=            -26.5385 XXZZ=            -26.9071 YYZZ=            -14.0008
 XXYZ=              0.9666 YYXZ=              0.8637 ZZXY=              0.3382
 N-N= 1.115305084662D+02 E-N=-2.282189548223D+03  KE= 8.210271497249D+02
                          Isotropic Fermi Contact Couplings
        Atom                 a.u.       MegaHertz       Gauss      10(-4) cm-1
     1  S(33)              0.10371      35.62187      12.71077      11.88218
     2  O(17)              0.01933     -11.72076      -4.18226      -3.90962
     3  O(17)              0.05166     -31.31906     -11.17542     -10.44691
     4  H(1)              -0.00070      -3.14502      -1.12222      -1.04907
 --------------------------------------------------------
       Center         ----  Spin Dipole Couplings  ----
                      3XX-RR        3YY-RR        3ZZ-RR
 --------------------------------------------------------
     1   Atom       -1.513054     -1.624697      3.137751
     2   Atom       -0.252481     -0.224986      0.477467
     3   Atom       -0.764699     -0.765205      1.529904
     4   Atom       -0.009865      0.021193     -0.011328
 --------------------------------------------------------
                        XY            XZ            YZ
 --------------------------------------------------------
     1   Atom       -0.001878     -0.040578      0.128570
     2   Atom        0.008468      0.011768     -0.083955
     3   Atom        0.004576      0.057796      0.026853
     4   Atom        0.004143      0.000864      0.003371
 --------------------------------------------------------


 ---------------------------------------------------------------------------------
              Anisotropic Spin Dipole Couplings in Principal Axis System
 ---------------------------------------------------------------------------------

       Atom             a.u.   MegaHertz   Gauss  10(-4) cm-1        Axes

              Baa    -1.6282   -66.754   -23.819   -22.267  0.0068  0.9996 -0.0269
     1 S(33)  Bbb    -1.5134   -62.048   -22.140   -20.697  0.9999 -0.0066  0.0089
              Bcc     3.1416   128.802    45.960    42.964 -0.0087  0.0270  0.9996
 
              Baa    -0.2570    18.594     6.635     6.202  0.9142 -0.4007 -0.0605
     2 O(17)  Bbb    -0.2305    16.682     5.953     5.565  0.4050  0.9087  0.1010
              Bcc     0.4875   -35.276   -12.587   -11.767  0.0145 -0.1168  0.9930
 
              Baa    -0.7697    55.699    19.875    18.579  0.7351 -0.6779 -0.0106
     3 O(17)  Bbb    -0.7619    55.132    19.673    18.390  0.6775  0.7351 -0.0257
              Bcc     1.5317  -110.831   -39.547   -36.969  0.0252  0.0117  0.9996
 
              Baa    -0.0118    -6.301    -2.248    -2.102 -0.2951 -0.0604  0.9536
     4 H(1)   Bbb    -0.0103    -5.487    -1.958    -1.830  0.9465 -0.1549  0.2831
              Bcc     0.0221    11.788     4.206     3.932  0.1306  0.9861  0.1028
 

 ---------------------------------------------------------------------------------

 1\1\ CPUSERV-QCEXNOD07\SP\UwB97XD\6-311+G(3df)\H1O2S1(2)\ROOT\21-Aug-2
 025\0\\#sp wB97XD/6-311+G(3df)\\Optimizacion del hoso\\0,2\S,0,-0.1388
 43,-0.476008,0.013308\O,0,1.310132,0.256471,-0.03704\O,0,-1.182636,0.5
 47438,-0.016037\H,0,1.196521,1.198845,0.169681\\Version=EM64L-G09RevC.
 01\State=2-A\HF=-549.2212341\S2=0.755453\S2-1=0.\S2A=0.750021\RMSD=5.9
 18e-09\Dipole=0.494721,0.0448394,0.1456999\Quadrupole=-2.1814915,2.127
 9113,0.0535802,2.5169339,0.3401826,0.4304442\PG=C01 [X(H1O2S1)]\\@


 THE ONLY DIFFERENCE BETWEEN ECCENTRICS AND JOGGERS
 IS THAT JOGGERS WEAR SWEATBANDS WHEN THEY RUN IN THE RAIN.
 Job cpu time:  0 days  0 hours  3 minutes 25.1 seconds.
 File lengths (MBytes):  RWF=     21 Int=      0 D2E=      0 Chk=      2 Scr=      1
 Normal termination of Gaussian 09 at Thu Aug 21 00:14:09 2025.
