 Entering Gaussian System, Link 0=g09
 Initial command:
 /soft/g09.c01/g09/l1.exe /scr/macias/389563.qcexmaster_vib6_0.05/Gau-29759.inp -scrdir=/scr/macias/389563.qcexmaster_vib6_0.05/
 Entering Link 1 = /soft/g09.c01/g09/l1.exe PID=     29763.
  
 Copyright (c) 1988,1990,1992,1993,1995,1998,2003,2009,2011,
            Gaussian, Inc.  All Rights Reserved.
  
 This is part of the Gaussian(R) 09 program.  It is based on
 the Gaussian(R) 03 system (copyright 2003, Gaussian, Inc.),
 the Gaussian(R) 98 system (copyright 1998, Gaussian, Inc.),
 the Gaussian(R) 94 system (copyright 1995, Gaussian, Inc.),
 the Gaussian 92(TM) system (copyright 1992, Gaussian, Inc.),
 the Gaussian 90(TM) system (copyright 1990, Gaussian, Inc.),
 the Gaussian 88(TM) system (copyright 1988, Gaussian, Inc.),
 the Gaussian 86(TM) system (copyright 1986, Carnegie Mellon
 University), and the Gaussian 82(TM) system (copyright 1983,
 Carnegie Mellon University). Gaussian is a federally registered
 trademark of Gaussian, Inc.
  
 This software contains proprietary and confidential information,
 including trade secrets, belonging to Gaussian, Inc.
  
 This software is provided under written license and may be
 used, copied, transmitted, or stored only in accord with that
 written license.
  
 The following legend is applicable only to US Government
 contracts under FAR:
  
                    RESTRICTED RIGHTS LEGEND
  
 Use, reproduction and disclosure by the US Government is
 subject to restrictions as set forth in subparagraphs (a)
 and (c) of the Commercial Computer Software - Restricted
 Rights clause in FAR 52.227-19.
  
 Gaussian, Inc.
 340 Quinnipiac St., Bldg. 40, Wallingford CT 06492
  
  
 ---------------------------------------------------------------
 Warning -- This program may not be used in any manner that
 competes with the business of Gaussian, Inc. or will provide
 assistance to any competitor of Gaussian, Inc.  The licensee
 of this program is prohibited from giving any competitor of
 Gaussian, Inc. access to this program.  By using this program,
 the user acknowledges that Gaussian, Inc. is engaged in the
 business of creating and licensing software in the field of
 computational chemistry and represents and warrants to the
 licensee that it is not a competitor of Gaussian, Inc. and that
 it will not use this program in any manner prohibited above.
 ---------------------------------------------------------------
  

 Cite this work as:
 Gaussian 09, Revision C.01,
 M. J. Frisch, G. W. Trucks, H. B. Schlegel, G. E. Scuseria, 
 M. A. Robb, J. R. Cheeseman, G. Scalmani, V. Barone, B. Mennucci, 
 G. A. Petersson, H. Nakatsuji, M. Caricato, X. Li, H. P. Hratchian, 
 A. F. Izmaylov, J. Bloino, G. Zheng, J. L. Sonnenberg, M. Hada, 
 M. Ehara, K. Toyota, R. Fukuda, J. Hasegawa, M. Ishida, T. Nakajima, 
 Y. Honda, O. Kitao, H. Nakai, T. Vreven, J. A. Montgomery, Jr., 
 J. E. Peralta, F. Ogliaro, M. Bearpark, J. J. Heyd, E. Brothers, 
 K. N. Kudin, V. N. Staroverov, T. Keith, R. Kobayashi, J. Normand, 
 K. Raghavachari, A. Rendell, J. C. Burant, S. S. Iyengar, J. Tomasi, 
 M. Cossi, N. Rega, J. M. Millam, M. Klene, J. E. Knox, J. B. Cross, 
 V. Bakken, C. Adamo, J. Jaramillo, R. Gomperts, R. E. Stratmann, 
 O. Yazyev, A. J. Austin, R. Cammi, C. Pomelli, J. W. Ochterski, 
 R. L. Martin, K. Morokuma, V. G. Zakrzewski, G. A. Voth, 
 P. Salvador, J. J. Dannenberg, S. Dapprich, A. D. Daniels, 
 O. Farkas, J. B. Foresman, J. V. Ortiz, J. Cioslowski, 
 and D. J. Fox, Gaussian, Inc., Wallingford CT, 2010.
 
  
 -----  Compilado por  -----------------------------------------
  
  Servicio de Calculo | Servicio de Informatica U. de Valencia
     calculo@uv.es    |  E-46100 Burjassot (Valencia) SPAIN
  
 ---------------------------------------------------------------
  
 ******************************************
 Gaussian 09:  EM64L-G09RevC.01 23-Sep-2011
                21-Aug-2025 
 ******************************************
 %chk=opt_freq.chk
 %nproc=6
 Will use up to    6 processors via shared memory.
 %mem=20GB
 Default route:  CacheSize=131072
 -----------------------
 #sp wB97XD/6-311+G(3df)
 -----------------------
 1/4=131072,38=1/1;
 2/4=131072,12=2,17=6,18=5,40=1/2;
 3/4=131072,5=4,6=6,7=16,11=2,16=1,25=1,30=1,74=-58/1,2,3;
 4/4=131072/1;
 5/4=131072,5=2,38=5/2;
 6/4=131072,7=2,8=2,9=2,10=2,28=1/1;
 99/4=131072,5=1,9=1/99;
 ---------------------
 Optimizacion del hoso
 ---------------------
 Charge =  0 Multiplicity = 2
 Symbolic Z-Matrix:
 S                    -0.13884  -0.47401   0.01631 
 O                     1.31013   0.25947  -0.04404 
 O                    -1.18564   0.54544  -0.02004 
 H                     1.22902   1.12135   0.24418 
 
                          Input orientation:                          
 ---------------------------------------------------------------------
 Center     Atomic      Atomic             Coordinates (Angstroms)
 Number     Number       Type             X           Y           Z
 ---------------------------------------------------------------------
      1         16           0       -0.138843   -0.474008    0.016308
      2          8           0        1.310132    0.259471   -0.044040
      3          8           0       -1.185636    0.545438   -0.020037
      4          1           0        1.229021    1.121345    0.244181
 ---------------------------------------------------------------------
                    Distance matrix (angstroms):
                    1          2          3          4
     1  S    0.000000
     2  O    1.625165   0.000000
     3  O    1.461632   2.512212   0.000000
     4  H    2.113795   0.912402   2.496407   0.000000
 Stoichiometry    HO2S(2)
 Framework group  C1[X(HO2S)]
 Deg. of freedom     6
 Full point group                 C1      NOp   1
 Largest Abelian subgroup         C1      NOp   1
 Largest concise Abelian subgroup C1      NOp   1
                         Standard orientation:                         
 ---------------------------------------------------------------------
 Center     Atomic      Atomic             Coordinates (Angstroms)
 Number     Number       Type             X           Y           Z
 ---------------------------------------------------------------------
      1         16           0       -0.138386   -0.473520    0.014726
      2          8           0        1.309725    0.261916   -0.042460
      3          8           0       -1.186391    0.544799   -0.018112
      4          1           0        1.227498    1.122609    0.248956
 ---------------------------------------------------------------------
 Rotational constants (GHZ):     35.3048725      9.6804587      7.6190215
 Standard basis: 6-311+G(3df) (5D, 7F)
 There are   128 symmetry adapted basis functions of A   symmetry.
 Integral buffers will be    131072 words long.
 Raffenetti 2 integral format.
 Two-electron integral symmetry is turned on.
   128 basis functions,   193 primitive gaussians,   146 cartesian basis functions
    17 alpha electrons       16 beta electrons
       nuclear repulsion energy       111.8427383495 Hartrees.
 NAtoms=    4 NActive=    4 NUniq=    4 SFac= 1.00D+00 NAtFMM=   60 NAOKFM=F Big=F
 Nuclear repulsion after empirical dispersion term =      111.8424926187 Hartrees.
 One-electron integrals computed using PRISM.
 NBasis=   128 RedAO= T  NBF=   128
 NBsUse=   128 1.00D-06 NBFU=   128
 Harris functional with IExCor= 4639 diagonalized for initial guess.
 ExpMin= 4.05D-02 ExpMax= 9.34D+04 ExpMxC= 3.17D+03 IAcc=2 IRadAn=         4 AccDes= 0.00D+00
 HarFok:  IExCor= 4639 AccDes= 0.00D+00 IRadAn=         4 IDoV= 1
 ScaDFX=  1.000000  1.000000  1.000000  1.000000
 FoFCou: FMM=F IPFlag=           0 FMFlag=      100000 FMFlg1=           0
         NFxFlg=           0 DoJE=T BraDBF=F KetDBF=T FulRan=T
         Omega=  0.000000  0.000000  1.000000  0.000000  0.000000 ICntrl=     500 IOpCl=  0
         NMat0=    1 NMatS0=    1 NMatT0=    0 NMatD0=    1 NMtDS0=    0 NMtDT0=    0
         I1Cent=           4 NGrid=           0.
 Petite list used in FoFCou.
 Initial guess orbital symmetries:
 Alpha Orbitals:
       Occupied  (A) (A) (A) (A) (A) (A) (A) (A) (A) (A) (A) (A)
                 (A) (A) (A) (A) (A)
       Virtual   (A) (A) (A) (A) (A) (A) (A) (A) (A) (A) (A) (A)
                 (A) (A) (A) (A) (A) (A) (A) (A) (A) (A) (A) (A)
                 (A) (A) (A) (A) (A) (A) (A) (A) (A) (A) (A) (A)
                 (A) (A) (A) (A) (A) (A) (A) (A) (A) (A) (A) (A)
                 (A) (A) (A) (A) (A) (A) (A) (A) (A) (A) (A) (A)
                 (A) (A) (A) (A) (A) (A) (A) (A) (A) (A) (A) (A)
                 (A) (A) (A) (A) (A) (A) (A) (A) (A) (A) (A) (A)
                 (A) (A) (A) (A) (A) (A) (A) (A) (A) (A) (A) (A)
                 (A) (A) (A) (A) (A) (A) (A) (A) (A) (A) (A) (A)
                 (A) (A) (A)
 Beta  Orbitals:
       Occupied  (A) (A) (A) (A) (A) (A) (A) (A) (A) (A) (A) (A)
                 (A) (A) (A) (A)
       Virtual   (A) (A) (A) (A) (A) (A) (A) (A) (A) (A) (A) (A)
                 (A) (A) (A) (A) (A) (A) (A) (A) (A) (A) (A) (A)
                 (A) (A) (A) (A) (A) (A) (A) (A) (A) (A) (A) (A)
                 (A) (A) (A) (A) (A) (A) (A) (A) (A) (A) (A) (A)
                 (A) (A) (A) (A) (A) (A) (A) (A) (A) (A) (A) (A)
                 (A) (A) (A) (A) (A) (A) (A) (A) (A) (A) (A) (A)
                 (A) (A) (A) (A) (A) (A) (A) (A) (A) (A) (A) (A)
                 (A) (A) (A) (A) (A) (A) (A) (A) (A) (A) (A) (A)
                 (A) (A) (A) (A) (A) (A) (A) (A) (A) (A) (A) (A)
                 (A) (A) (A) (A)
 The electronic state of the initial guess is 2-A.
 Initial guess <Sx>= 0.0000 <Sy>= 0.0000 <Sz>= 0.5000 <S**2>= 0.7500 S= 0.5000
 Requested convergence on RMS density matrix=1.00D-08 within 128 cycles.
 Requested convergence on MAX density matrix=1.00D-06.
 Requested convergence on             energy=1.00D-06.
 No special actions if energy rises.
 FoFJK:  IHMeth= 1 ICntrl=     0 DoSepK=T KAlg= 1 I1Cent= 0 FoldK=F
 FoFJK:  IHMeth= 1 ICntrl=     0 DoSepK=T KAlg= 1 I1Cent= 0 FoldK=F
 FoFJK:  IHMeth= 1 ICntrl=     0 DoSepK=T KAlg= 1 I1Cent= 0 FoldK=F
 FoFJK:  IHMeth= 1 ICntrl=     0 DoSepK=T KAlg= 1 I1Cent= 0 FoldK=F
 FoFJK:  IHMeth= 1 ICntrl=     0 DoSepK=T KAlg= 1 I1Cent= 0 FoldK=F
 FoFJK:  IHMeth= 1 ICntrl=     0 DoSepK=T KAlg= 1 I1Cent= 0 FoldK=F
 FoFJK:  IHMeth= 1 ICntrl=     0 DoSepK=T KAlg= 1 I1Cent= 0 FoldK=F
 FoFJK:  IHMeth= 1 ICntrl=     0 DoSepK=T KAlg= 1 I1Cent= 0 FoldK=F
 FoFJK:  IHMeth= 1 ICntrl=     0 DoSepK=T KAlg= 1 I1Cent= 0 FoldK=F
 FoFJK:  IHMeth= 1 ICntrl=     0 DoSepK=T KAlg= 1 I1Cent= 0 FoldK=F
 FoFJK:  IHMeth= 1 ICntrl=     0 DoSepK=T KAlg= 1 I1Cent= 0 FoldK=F
 FoFJK:  IHMeth= 1 ICntrl=     0 DoSepK=T KAlg= 1 I1Cent= 0 FoldK=F
 FoFJK:  IHMeth= 1 ICntrl=     0 DoSepK=T KAlg= 1 I1Cent= 0 FoldK=F
 FoFJK:  IHMeth= 1 ICntrl=     0 DoSepK=T KAlg= 1 I1Cent= 0 FoldK=F
 FoFJK:  IHMeth= 1 ICntrl=     0 DoSepK=T KAlg= 1 I1Cent= 0 FoldK=F
 SCF Done:  E(UwB97XD) =  -549.218276873     A.U. after   15 cycles
             Convg  =    0.6641D-08             -V/T =  2.0014
 <Sx>= 0.0000 <Sy>= 0.0000 <Sz>= 0.5000 <S**2>= 0.7555 S= 0.5027
 <L.S>= 0.000000000000E+00
 Annihilation of the first spin contaminant:
 S**2 before annihilation     0.7555,   after     0.7500

 **********************************************************************

            Population analysis using the SCF density.

 **********************************************************************

 Orbital symmetries:
 Alpha Orbitals:
       Occupied  (A) (A) (A) (A) (A) (A) (A) (A) (A) (A) (A) (A)
                 (A) (A) (A) (A) (A)
       Virtual   (A) (A) (A) (A) (A) (A) (A) (A) (A) (A) (A) (A)
                 (A) (A) (A) (A) (A) (A) (A) (A) (A) (A) (A) (A)
                 (A) (A) (A) (A) (A) (A) (A) (A) (A) (A) (A) (A)
                 (A) (A) (A) (A) (A) (A) (A) (A) (A) (A) (A) (A)
                 (A) (A) (A) (A) (A) (A) (A) (A) (A) (A) (A) (A)
                 (A) (A) (A) (A) (A) (A) (A) (A) (A) (A) (A) (A)
                 (A) (A) (A) (A) (A) (A) (A) (A) (A) (A) (A) (A)
                 (A) (A) (A) (A) (A) (A) (A) (A) (A) (A) (A) (A)
                 (A) (A) (A) (A) (A) (A) (A) (A) (A) (A) (A) (A)
                 (A) (A) (A)
 Beta  Orbitals:
       Occupied  (A) (A) (A) (A) (A) (A) (A) (A) (A) (A) (A) (A)
                 (A) (A) (A) (A)
       Virtual   (A) (A) (A) (A) (A) (A) (A) (A) (A) (A) (A) (A)
                 (A) (A) (A) (A) (A) (A) (A) (A) (A) (A) (A) (A)
                 (A) (A) (A) (A) (A) (A) (A) (A) (A) (A) (A) (A)
                 (A) (A) (A) (A) (A) (A) (A) (A) (A) (A) (A) (A)
                 (A) (A) (A) (A) (A) (A) (A) (A) (A) (A) (A) (A)
                 (A) (A) (A) (A) (A) (A) (A) (A) (A) (A) (A) (A)
                 (A) (A) (A) (A) (A) (A) (A) (A) (A) (A) (A) (A)
                 (A) (A) (A) (A) (A) (A) (A) (A) (A) (A) (A) (A)
                 (A) (A) (A) (A) (A) (A) (A) (A) (A) (A) (A) (A)
                 (A) (A) (A) (A)
 The electronic state is 2-A.
 Alpha  occ. eigenvalues --  -89.15010 -19.31381 -19.28433  -8.17761  -6.12695
 Alpha  occ. eigenvalues --   -6.12452  -6.12096  -1.23140  -1.15567  -0.80844
 Alpha  occ. eigenvalues --   -0.63812  -0.57527  -0.56693  -0.50756  -0.47334
 Alpha  occ. eigenvalues --   -0.42618  -0.31044
 Alpha virt. eigenvalues --    0.05249   0.06702   0.07561   0.09359   0.11847
 Alpha virt. eigenvalues --    0.13694   0.19756   0.22677   0.24538   0.24952
 Alpha virt. eigenvalues --    0.26364   0.28166   0.30307   0.32487   0.32850
 Alpha virt. eigenvalues --    0.35524   0.36470   0.37946   0.39192   0.40374
 Alpha virt. eigenvalues --    0.41173   0.50739   0.60297   0.68210   0.78132
 Alpha virt. eigenvalues --    0.81085   0.86896   0.87821   0.93780   0.96052
 Alpha virt. eigenvalues --    0.96675   0.97503   0.99881   1.02235   1.05450
 Alpha virt. eigenvalues --    1.09021   1.10185   1.12883   1.13920   1.17273
 Alpha virt. eigenvalues --    1.21957   1.28322   1.33332   1.38027   1.40212
 Alpha virt. eigenvalues --    1.44132   1.66822   1.68111   1.74459   1.81200
 Alpha virt. eigenvalues --    1.92541   2.01710   2.08211   2.08781   2.12742
 Alpha virt. eigenvalues --    2.20487   2.31098   2.36393   2.45128   3.36701
 Alpha virt. eigenvalues --    3.41866   3.44964   3.47361   3.49816   3.55394
 Alpha virt. eigenvalues --    3.56411   3.65179   3.70386   3.77166   4.53083
 Alpha virt. eigenvalues --    4.56984   4.61492   4.70587   4.90732   4.97376
 Alpha virt. eigenvalues --    5.02995   5.03691   5.03835   5.06919   5.09052
 Alpha virt. eigenvalues --    5.09778   5.11365   5.16476   5.24036   5.24560
 Alpha virt. eigenvalues --    5.42748   5.47040   5.53431   5.58863   5.67776
 Alpha virt. eigenvalues --    5.81750   5.86121   6.02270   6.58541   8.77495
 Alpha virt. eigenvalues --   14.32126  14.35520  14.37057  14.39131  14.41335
 Alpha virt. eigenvalues --   14.45584  14.47667  14.51803  14.63709  14.70800
 Alpha virt. eigenvalues --   17.36104  17.61516  17.89969  50.03037  50.11000
 Alpha virt. eigenvalues --  189.82242
  Beta  occ. eigenvalues --  -89.14624 -19.31143 -19.27543  -8.17417  -6.12467
  Beta  occ. eigenvalues --   -6.11888  -6.11213  -1.22097  -1.14019  -0.78645
  Beta  occ. eigenvalues --   -0.62416  -0.56717  -0.53289  -0.48731  -0.43616
  Beta  occ. eigenvalues --   -0.41400
  Beta virt. eigenvalues --   -0.03945   0.05751   0.07055   0.08019   0.09958
  Beta virt. eigenvalues --    0.12689   0.14566   0.19952   0.22941   0.24863
  Beta virt. eigenvalues --    0.25158   0.26820   0.28542   0.30607   0.32667
  Beta virt. eigenvalues --    0.33995   0.35781   0.36967   0.38613   0.40508
  Beta virt. eigenvalues --    0.40950   0.41887   0.51339   0.60508   0.68722
  Beta virt. eigenvalues --    0.78669   0.81384   0.87347   0.88642   0.94397
  Beta virt. eigenvalues --    0.96421   0.97641   0.98544   1.00701   1.03065
  Beta virt. eigenvalues --    1.06196   1.09881   1.12157   1.13364   1.14300
  Beta virt. eigenvalues --    1.18093   1.23239   1.28808   1.34692   1.38825
  Beta virt. eigenvalues --    1.40571   1.44501   1.69897   1.70121   1.76086
  Beta virt. eigenvalues --    1.82746   1.93336   2.03125   2.08925   2.11122
  Beta virt. eigenvalues --    2.13107   2.20967   2.31578   2.37323   2.45609
  Beta virt. eigenvalues --    3.37552   3.43293   3.47150   3.48549   3.51230
  Beta virt. eigenvalues --    3.56686   3.58273   3.65886   3.71573   3.77467
  Beta virt. eigenvalues --    4.53620   4.57136   4.62366   4.71071   4.91314
  Beta virt. eigenvalues --    4.97911   5.03575   5.04397   5.04746   5.08316
  Beta virt. eigenvalues --    5.11648   5.12859   5.13279   5.17330   5.24961
  Beta virt. eigenvalues --    5.25882   5.43320   5.47568   5.54208   5.59608
  Beta virt. eigenvalues --    5.68924   5.82408   5.87491   6.02728   6.58946
  Beta virt. eigenvalues --    8.77858  14.33386  14.37807  14.40289  14.41017
  Beta virt. eigenvalues --   14.43584  14.48426  14.49337  14.52936  14.64177
  Beta virt. eigenvalues --   14.72835  17.37497  17.61806  17.90290  50.03264
  Beta virt. eigenvalues --   50.11786 189.82547
          Condensed to atoms (all electrons):
              1          2          3          4
     1  S   15.363492  -0.021596   0.139299   0.010699
     2  O   -0.021596   8.431342   0.005380   0.214481
     3  O    0.139299   0.005380   8.235338  -0.001153
     4  H    0.010699   0.214481  -0.001153   0.275608
 Mulliken atomic charges:
              1
     1  S    0.508106
     2  O   -0.629607
     3  O   -0.378864
     4  H    0.500365
 Sum of Mulliken atomic charges =   0.00000
 Mulliken charges with hydrogens summed into heavy atoms:
              1
     1  S    0.508106
     2  O   -0.129242
     3  O   -0.378864
 Sum of Mulliken charges with hydrogens summed into heavy atoms =   0.00000
          Atomic-Atomic Spin Densities.
              1          2          3          4
     1  S    0.941427  -0.103056  -0.197391   0.000029
     2  O   -0.103056   0.146433   0.018867  -0.004517
     3  O   -0.197391   0.018867   0.479849  -0.000615
     4  H    0.000029  -0.004517  -0.000615   0.005657
 Mulliken atomic spin densities:
              1
     1  S    0.641010
     2  O    0.057727
     3  O    0.300710
     4  H    0.000554
 Sum of Mulliken atomic spin densities =   1.00000
 Electronic spatial extent (au):  <R**2>=            176.7548
 Charge=              0.0000 electrons
 Dipole moment (field-independent basis, Debye):
    X=              1.2610    Y=              0.0081    Z=              0.5190  Tot=              1.3636
 Quadrupole moment (field-independent basis, Debye-Ang):
   XX=            -26.5606   YY=            -21.2200   ZZ=            -23.5300
   XY=              3.2898   XZ=              0.6849   YZ=              0.8014
 Traceless Quadrupole moment (field-independent basis, Debye-Ang):
   XX=             -2.7904   YY=              2.5502   ZZ=              0.2402
   XY=              3.2898   XZ=              0.6849   YZ=              0.8014
 Octapole moment (field-independent basis, Debye-Ang**2):
  XXX=              1.6453  YYY=              4.8984  ZZZ=              0.0062  XYY=              4.3503
  XXY=              1.0282  XXZ=              0.8472  XZZ=              0.1976  YZZ=              1.2307
  YYZ=              0.9040  XYZ=              0.9688
 Hexadecapole moment (field-independent basis, Debye-Ang**3):
 XXXX=           -140.2831 YYYY=            -51.6653 ZZZZ=            -24.7814 XXXY=              6.0629
 XXXZ=              1.2322 YYYX=              5.8579 YYYZ=              1.2676 ZZZX=              0.3968
 ZZZY=              0.5884 XXYY=            -26.6740 XXZZ=            -26.6893 YYZZ=            -13.7242
 XXYZ=              1.3532 YYXZ=              1.1216 ZZXY=              0.4801
 N-N= 1.118424926187D+02 E-N=-2.283162290560D+03  KE= 8.212047752746D+02
                          Isotropic Fermi Contact Couplings
        Atom                 a.u.       MegaHertz       Gauss      10(-4) cm-1
     1  S(33)              0.10313      35.42089      12.63905      11.81514
     2  O(17)              0.02008     -12.17173      -4.34318      -4.06005
     3  O(17)              0.05234     -31.73065     -11.32228     -10.58420
     4  H(1)               0.00046       2.04584       0.73001       0.68242
 --------------------------------------------------------
       Center         ----  Spin Dipole Couplings  ----
                      3XX-RR        3YY-RR        3ZZ-RR
 --------------------------------------------------------
     1   Atom       -1.506716     -1.617809      3.124525
     2   Atom       -0.234861     -0.201902      0.436762
     3   Atom       -0.776345     -0.779638      1.555984
     4   Atom       -0.010718      0.022055     -0.011337
 --------------------------------------------------------
                        XY            XZ            YZ
 --------------------------------------------------------
     1   Atom       -0.003507     -0.054559      0.164992
     2   Atom        0.007758      0.010771     -0.106441
     3   Atom        0.005681      0.083151      0.040113
     4   Atom        0.004829      0.001333      0.004886
 --------------------------------------------------------


 ---------------------------------------------------------------------------------
              Anisotropic Spin Dipole Couplings in Principal Axis System
 ---------------------------------------------------------------------------------

       Atom             a.u.   MegaHertz   Gauss  10(-4) cm-1        Axes

              Baa    -1.6236   -66.565   -23.752   -22.204  0.0138  0.9993 -0.0346
     1 S(33)  Bbb    -1.5073   -61.799   -22.052   -20.614  0.9998 -0.0134  0.0123
              Bcc     3.1309   128.364    45.804    42.818 -0.0118  0.0347  0.9993
 
              Baa    -0.2394    17.319     6.180     5.777  0.9067 -0.4142 -0.0797
     2 O(17)  Bbb    -0.2148    15.544     5.546     5.185  0.4216  0.8960  0.1394
              Bcc     0.4542   -32.863   -11.726   -10.962  0.0136 -0.1600  0.9870
 
              Baa    -0.7841    56.737    20.245    18.925 -0.6634  0.7482  0.0107
     3 O(17)  Bbb    -0.7755    56.117    20.024    18.719  0.7474  0.6633 -0.0381
              Bcc     1.5596  -112.854   -40.269   -37.644  0.0356  0.0172  0.9992
 
              Baa    -0.0124    -6.634    -2.367    -2.213 -0.5288 -0.0460  0.8475
     4 H(1)   Bbb    -0.0110    -5.892    -2.103    -1.966  0.8365 -0.1975  0.5112
              Bcc     0.0235    12.527     4.470     4.178  0.1438  0.9792  0.1429
 

 ---------------------------------------------------------------------------------

 1\1\ CPUSERV-QCEXNOD02\SP\UwB97XD\6-311+G(3df)\H1O2S1(2)\ROOT\21-Aug-2
 025\0\\#sp wB97XD/6-311+G(3df)\\Optimizacion del hoso\\0,2\S,0,-0.1388
 43,-0.474008,0.016308\O,0,1.310132,0.259471,-0.04404\O,0,-1.185636,0.5
 45438,-0.020037\H,0,1.229021,1.121345,0.244181\\Version=EM64L-G09RevC.
 01\State=2-A\HF=-549.2182769\S2=0.75549\S2-1=0.\S2A=0.750021\RMSD=6.64
 1e-09\Dipole=0.4961749,0.0033707,0.2040201\Quadrupole=-2.0684215,1.894
 56,0.1738615,2.4527019,0.5013777,0.5881074\PG=C01 [X(H1O2S1)]\\@


 YOU SHOULDN'T LET PEOPLE DRIVE YOU CRAZY
 WHEN YOU KNOW IT'S WITHIN WALKING DISTANCE.
 Job cpu time:  0 days  0 hours  4 minutes  5.4 seconds.
 File lengths (MBytes):  RWF=     21 Int=      0 D2E=      0 Chk=      2 Scr=      1
 Normal termination of Gaussian 09 at Thu Aug 21 00:36:28 2025.
