 Entering Gaussian System, Link 0=g09
 Initial command:
 /soft/g09.c01/g09/l1.exe /scr/macias/389585.qcexmaster_vib3_-0.20/Gau-22555.inp -scrdir=/scr/macias/389585.qcexmaster_vib3_-0.20/
 Entering Link 1 = /soft/g09.c01/g09/l1.exe PID=     22557.
  
 Copyright (c) 1988,1990,1992,1993,1995,1998,2003,2009,2011,
            Gaussian, Inc.  All Rights Reserved.
  
 This is part of the Gaussian(R) 09 program.  It is based on
 the Gaussian(R) 03 system (copyright 2003, Gaussian, Inc.),
 the Gaussian(R) 98 system (copyright 1998, Gaussian, Inc.),
 the Gaussian(R) 94 system (copyright 1995, Gaussian, Inc.),
 the Gaussian 92(TM) system (copyright 1992, Gaussian, Inc.),
 the Gaussian 90(TM) system (copyright 1990, Gaussian, Inc.),
 the Gaussian 88(TM) system (copyright 1988, Gaussian, Inc.),
 the Gaussian 86(TM) system (copyright 1986, Carnegie Mellon
 University), and the Gaussian 82(TM) system (copyright 1983,
 Carnegie Mellon University). Gaussian is a federally registered
 trademark of Gaussian, Inc.
  
 This software contains proprietary and confidential information,
 including trade secrets, belonging to Gaussian, Inc.
  
 This software is provided under written license and may be
 used, copied, transmitted, or stored only in accord with that
 written license.
  
 The following legend is applicable only to US Government
 contracts under FAR:
  
                    RESTRICTED RIGHTS LEGEND
  
 Use, reproduction and disclosure by the US Government is
 subject to restrictions as set forth in subparagraphs (a)
 and (c) of the Commercial Computer Software - Restricted
 Rights clause in FAR 52.227-19.
  
 Gaussian, Inc.
 340 Quinnipiac St., Bldg. 40, Wallingford CT 06492
  
  
 ---------------------------------------------------------------
 Warning -- This program may not be used in any manner that
 competes with the business of Gaussian, Inc. or will provide
 assistance to any competitor of Gaussian, Inc.  The licensee
 of this program is prohibited from giving any competitor of
 Gaussian, Inc. access to this program.  By using this program,
 the user acknowledges that Gaussian, Inc. is engaged in the
 business of creating and licensing software in the field of
 computational chemistry and represents and warrants to the
 licensee that it is not a competitor of Gaussian, Inc. and that
 it will not use this program in any manner prohibited above.
 ---------------------------------------------------------------
  

 Cite this work as:
 Gaussian 09, Revision C.01,
 M. J. Frisch, G. W. Trucks, H. B. Schlegel, G. E. Scuseria, 
 M. A. Robb, J. R. Cheeseman, G. Scalmani, V. Barone, B. Mennucci, 
 G. A. Petersson, H. Nakatsuji, M. Caricato, X. Li, H. P. Hratchian, 
 A. F. Izmaylov, J. Bloino, G. Zheng, J. L. Sonnenberg, M. Hada, 
 M. Ehara, K. Toyota, R. Fukuda, J. Hasegawa, M. Ishida, T. Nakajima, 
 Y. Honda, O. Kitao, H. Nakai, T. Vreven, J. A. Montgomery, Jr., 
 J. E. Peralta, F. Ogliaro, M. Bearpark, J. J. Heyd, E. Brothers, 
 K. N. Kudin, V. N. Staroverov, T. Keith, R. Kobayashi, J. Normand, 
 K. Raghavachari, A. Rendell, J. C. Burant, S. S. Iyengar, J. Tomasi, 
 M. Cossi, N. Rega, J. M. Millam, M. Klene, J. E. Knox, J. B. Cross, 
 V. Bakken, C. Adamo, J. Jaramillo, R. Gomperts, R. E. Stratmann, 
 O. Yazyev, A. J. Austin, R. Cammi, C. Pomelli, J. W. Ochterski, 
 R. L. Martin, K. Morokuma, V. G. Zakrzewski, G. A. Voth, 
 P. Salvador, J. J. Dannenberg, S. Dapprich, A. D. Daniels, 
 O. Farkas, J. B. Foresman, J. V. Ortiz, J. Cioslowski, 
 and D. J. Fox, Gaussian, Inc., Wallingford CT, 2010.
 
  
 -----  Compilado por  -----------------------------------------
  
  Servicio de Calculo | Servicio de Informatica U. de Valencia
     calculo@uv.es    |  E-46100 Burjassot (Valencia) SPAIN
  
 ---------------------------------------------------------------
  
 ******************************************
 Gaussian 09:  EM64L-G09RevC.01 23-Sep-2011
                21-Aug-2025 
 ******************************************
 %chk=opt_freq.chk
 %nproc=6
 Will use up to    6 processors via shared memory.
 %mem=20GB
 Default route:  CacheSize=131072
 -----------------------
 #sp wB97XD/6-311+G(3df)
 -----------------------
 1/4=131072,38=1/1;
 2/4=131072,12=2,17=6,18=5,40=1/2;
 3/4=131072,5=4,6=6,7=16,11=2,16=1,25=1,30=1,74=-58/1,2,3;
 4/4=131072/1;
 5/4=131072,5=2,38=5/2;
 6/4=131072,7=2,8=2,9=2,10=2,28=1/1;
 99/4=131072,5=1,9=1/99;
 ---------------------
 Optimizacion del hoso
 ---------------------
 Charge =  0 Multiplicity = 2
 Symbolic Z-Matrix:
 S                    -0.20484  -0.52201   0.02031 
 O                     1.45213   0.33247  -0.05504 
 O                    -1.19164   0.56544  -0.02204 
 H                     1.17152   1.20885   0.30768 
 
                          Input orientation:                          
 ---------------------------------------------------------------------
 Center     Atomic      Atomic             Coordinates (Angstroms)
 Number     Number       Type             X           Y           Z
 ---------------------------------------------------------------------
      1         16           0       -0.204843   -0.522008    0.020308
      2          8           0        1.452132    0.332471   -0.055040
      3          8           0       -1.191636    0.565438   -0.022037
      4          1           0        1.171521    1.208845    0.307681
 ---------------------------------------------------------------------
                    Distance matrix (angstroms):
                    1          2          3          4
     1  S    0.000000
     2  O    1.865845   0.000000
     3  O    1.469045   2.654218   0.000000
     4  H    2.229981   0.989111   2.471274   0.000000
 Stoichiometry    HO2S(2)
 Framework group  C1[X(HO2S)]
 Deg. of freedom     6
 Full point group                 C1      NOp   1
 Largest Abelian subgroup         C1      NOp   1
 Largest concise Abelian subgroup C1      NOp   1
                         Standard orientation:                         
 ---------------------------------------------------------------------
 Center     Atomic      Atomic             Coordinates (Angstroms)
 Number     Number       Type             X           Y           Z
 ---------------------------------------------------------------------
      1         16           0       -0.243167   -0.506386    0.016834
      2          8           0        1.473893    0.220859   -0.047970
      3          8           0       -1.144879    0.652592   -0.025335
      4          1           0        1.258561    1.114563    0.317088
 ---------------------------------------------------------------------
 Rotational constants (GHZ):     29.5025503      8.5123144      6.6314199
 Standard basis: 6-311+G(3df) (5D, 7F)
 There are   128 symmetry adapted basis functions of A   symmetry.
 Integral buffers will be    131072 words long.
 Raffenetti 2 integral format.
 Two-electron integral symmetry is turned on.
   128 basis functions,   193 primitive gaussians,   146 cartesian basis functions
    17 alpha electrons       16 beta electrons
       nuclear repulsion energy       104.9601085226 Hartrees.
 NAtoms=    4 NActive=    4 NUniq=    4 SFac= 1.00D+00 NAtFMM=   60 NAOKFM=F Big=F
 Nuclear repulsion after empirical dispersion term =      104.9598255438 Hartrees.
 One-electron integrals computed using PRISM.
 NBasis=   128 RedAO= T  NBF=   128
 NBsUse=   128 1.00D-06 NBFU=   128
 Harris functional with IExCor= 4639 diagonalized for initial guess.
 ExpMin= 4.05D-02 ExpMax= 9.34D+04 ExpMxC= 3.17D+03 IAcc=2 IRadAn=         4 AccDes= 0.00D+00
 HarFok:  IExCor= 4639 AccDes= 0.00D+00 IRadAn=         4 IDoV= 1
 ScaDFX=  1.000000  1.000000  1.000000  1.000000
 FoFCou: FMM=F IPFlag=           0 FMFlag=      100000 FMFlg1=           0
         NFxFlg=           0 DoJE=T BraDBF=F KetDBF=T FulRan=T
         Omega=  0.000000  0.000000  1.000000  0.000000  0.000000 ICntrl=     500 IOpCl=  0
         NMat0=    1 NMatS0=    1 NMatT0=    0 NMatD0=    1 NMtDS0=    0 NMtDT0=    0
         I1Cent=           4 NGrid=           0.
 Petite list used in FoFCou.
 Initial guess orbital symmetries:
 Alpha Orbitals:
       Occupied  (A) (A) (A) (A) (A) (A) (A) (A) (A) (A) (A) (A)
                 (A) (A) (A) (A) (A)
       Virtual   (A) (A) (A) (A) (A) (A) (A) (A) (A) (A) (A) (A)
                 (A) (A) (A) (A) (A) (A) (A) (A) (A) (A) (A) (A)
                 (A) (A) (A) (A) (A) (A) (A) (A) (A) (A) (A) (A)
                 (A) (A) (A) (A) (A) (A) (A) (A) (A) (A) (A) (A)
                 (A) (A) (A) (A) (A) (A) (A) (A) (A) (A) (A) (A)
                 (A) (A) (A) (A) (A) (A) (A) (A) (A) (A) (A) (A)
                 (A) (A) (A) (A) (A) (A) (A) (A) (A) (A) (A) (A)
                 (A) (A) (A) (A) (A) (A) (A) (A) (A) (A) (A) (A)
                 (A) (A) (A) (A) (A) (A) (A) (A) (A) (A) (A) (A)
                 (A) (A) (A)
 Beta  Orbitals:
       Occupied  (A) (A) (A) (A) (A) (A) (A) (A) (A) (A) (A) (A)
                 (A) (A) (A) (A)
       Virtual   (A) (A) (A) (A) (A) (A) (A) (A) (A) (A) (A) (A)
                 (A) (A) (A) (A) (A) (A) (A) (A) (A) (A) (A) (A)
                 (A) (A) (A) (A) (A) (A) (A) (A) (A) (A) (A) (A)
                 (A) (A) (A) (A) (A) (A) (A) (A) (A) (A) (A) (A)
                 (A) (A) (A) (A) (A) (A) (A) (A) (A) (A) (A) (A)
                 (A) (A) (A) (A) (A) (A) (A) (A) (A) (A) (A) (A)
                 (A) (A) (A) (A) (A) (A) (A) (A) (A) (A) (A) (A)
                 (A) (A) (A) (A) (A) (A) (A) (A) (A) (A) (A) (A)
                 (A) (A) (A) (A) (A) (A) (A) (A) (A) (A) (A) (A)
                 (A) (A) (A) (A)
 The electronic state of the initial guess is 2-A.
 Initial guess <Sx>= 0.0000 <Sy>= 0.0000 <Sz>= 0.5000 <S**2>= 0.7500 S= 0.5000
 Requested convergence on RMS density matrix=1.00D-08 within 128 cycles.
 Requested convergence on MAX density matrix=1.00D-06.
 Requested convergence on             energy=1.00D-06.
 No special actions if energy rises.
 FoFJK:  IHMeth= 1 ICntrl=     0 DoSepK=T KAlg= 1 I1Cent= 0 FoldK=F
 FoFJK:  IHMeth= 1 ICntrl=     0 DoSepK=T KAlg= 1 I1Cent= 0 FoldK=F
 FoFJK:  IHMeth= 1 ICntrl=     0 DoSepK=T KAlg= 1 I1Cent= 0 FoldK=F
 FoFJK:  IHMeth= 1 ICntrl=     0 DoSepK=T KAlg= 1 I1Cent= 0 FoldK=F
 FoFJK:  IHMeth= 1 ICntrl=     0 DoSepK=T KAlg= 1 I1Cent= 0 FoldK=F
 FoFJK:  IHMeth= 1 ICntrl=     0 DoSepK=T KAlg= 1 I1Cent= 0 FoldK=F
 FoFJK:  IHMeth= 1 ICntrl=     0 DoSepK=T KAlg= 1 I1Cent= 0 FoldK=F
 FoFJK:  IHMeth= 1 ICntrl=     0 DoSepK=T KAlg= 1 I1Cent= 0 FoldK=F
 FoFJK:  IHMeth= 1 ICntrl=     0 DoSepK=T KAlg= 1 I1Cent= 0 FoldK=F
 FoFJK:  IHMeth= 1 ICntrl=     0 DoSepK=T KAlg= 1 I1Cent= 0 FoldK=F
 FoFJK:  IHMeth= 1 ICntrl=     0 DoSepK=T KAlg= 1 I1Cent= 0 FoldK=F
 FoFJK:  IHMeth= 1 ICntrl=     0 DoSepK=T KAlg= 1 I1Cent= 0 FoldK=F
 FoFJK:  IHMeth= 1 ICntrl=     0 DoSepK=T KAlg= 1 I1Cent= 0 FoldK=F
 FoFJK:  IHMeth= 1 ICntrl=     0 DoSepK=T KAlg= 1 I1Cent= 0 FoldK=F
 FoFJK:  IHMeth= 1 ICntrl=     0 DoSepK=T KAlg= 1 I1Cent= 0 FoldK=F
 FoFJK:  IHMeth= 1 ICntrl=     0 DoSepK=T KAlg= 1 I1Cent= 0 FoldK=F
 FoFJK:  IHMeth= 1 ICntrl=     0 DoSepK=T KAlg= 1 I1Cent= 0 FoldK=F
 SCF Done:  E(UwB97XD) =  -549.201881236     A.U. after   17 cycles
             Convg  =    0.4509D-08             -V/T =  2.0022
 <Sx>= 0.0000 <Sy>= 0.0000 <Sz>= 0.5000 <S**2>= 0.7558 S= 0.5029
 <L.S>= 0.000000000000E+00
 Annihilation of the first spin contaminant:
 S**2 before annihilation     0.7558,   after     0.7500

 **********************************************************************

            Population analysis using the SCF density.

 **********************************************************************

 Orbital symmetries:
 Alpha Orbitals:
       Occupied  (A) (A) (A) (A) (A) (A) (A) (A) (A) (A) (A) (A)
                 (A) (A) (A) (A) (A)
       Virtual   (A) (A) (A) (A) (A) (A) (A) (A) (A) (A) (A) (A)
                 (A) (A) (A) (A) (A) (A) (A) (A) (A) (A) (A) (A)
                 (A) (A) (A) (A) (A) (A) (A) (A) (A) (A) (A) (A)
                 (A) (A) (A) (A) (A) (A) (A) (A) (A) (A) (A) (A)
                 (A) (A) (A) (A) (A) (A) (A) (A) (A) (A) (A) (A)
                 (A) (A) (A) (A) (A) (A) (A) (A) (A) (A) (A) (A)
                 (A) (A) (A) (A) (A) (A) (A) (A) (A) (A) (A) (A)
                 (A) (A) (A) (A) (A) (A) (A) (A) (A) (A) (A) (A)
                 (A) (A) (A) (A) (A) (A) (A) (A) (A) (A) (A) (A)
                 (A) (A) (A)
 Beta  Orbitals:
       Occupied  (A) (A) (A) (A) (A) (A) (A) (A) (A) (A) (A) (A)
                 (A) (A) (A) (A)
       Virtual   (A) (A) (A) (A) (A) (A) (A) (A) (A) (A) (A) (A)
                 (A) (A) (A) (A) (A) (A) (A) (A) (A) (A) (A) (A)
                 (A) (A) (A) (A) (A) (A) (A) (A) (A) (A) (A) (A)
                 (A) (A) (A) (A) (A) (A) (A) (A) (A) (A) (A) (A)
                 (A) (A) (A) (A) (A) (A) (A) (A) (A) (A) (A) (A)
                 (A) (A) (A) (A) (A) (A) (A) (A) (A) (A) (A) (A)
                 (A) (A) (A) (A) (A) (A) (A) (A) (A) (A) (A) (A)
                 (A) (A) (A) (A) (A) (A) (A) (A) (A) (A) (A) (A)
                 (A) (A) (A) (A) (A) (A) (A) (A) (A) (A) (A) (A)
                 (A) (A) (A) (A)
 The electronic state is 2-A.
 Alpha  occ. eigenvalues --  -89.16726 -19.31163 -19.29610  -8.19399  -6.14289
 Alpha  occ. eigenvalues --   -6.14090  -6.13793  -1.20797  -1.10884  -0.79064
 Alpha  occ. eigenvalues --   -0.59818  -0.56609  -0.55795  -0.52521  -0.44192
 Alpha  occ. eigenvalues --   -0.42258  -0.33666
 Alpha virt. eigenvalues --   -0.00003   0.05855   0.06694   0.09068   0.09764
 Alpha virt. eigenvalues --    0.13245   0.18713   0.23120   0.24369   0.24466
 Alpha virt. eigenvalues --    0.25656   0.27629   0.29975   0.31596   0.32267
 Alpha virt. eigenvalues --    0.33467   0.35330   0.37434   0.38846   0.39889
 Alpha virt. eigenvalues --    0.40269   0.45292   0.57175   0.65023   0.78156
 Alpha virt. eigenvalues --    0.83336   0.86641   0.87209   0.92785   0.94195
 Alpha virt. eigenvalues --    0.96641   0.98606   1.00020   1.01981   1.04965
 Alpha virt. eigenvalues --    1.06318   1.08555   1.10448   1.11927   1.14121
 Alpha virt. eigenvalues --    1.17416   1.25505   1.30265   1.34490   1.35933
 Alpha virt. eigenvalues --    1.46032   1.65875   1.66407   1.72172   1.76549
 Alpha virt. eigenvalues --    1.77536   1.91673   1.93905   2.07101   2.08654
 Alpha virt. eigenvalues --    2.19252   2.32720   2.38730   2.47667   3.38513
 Alpha virt. eigenvalues --    3.40623   3.43324   3.50783   3.51296   3.53123
 Alpha virt. eigenvalues --    3.56483   3.63839   3.67006   3.71251   4.56612
 Alpha virt. eigenvalues --    4.58629   4.59704   4.60065   4.89333   5.01952
 Alpha virt. eigenvalues --    5.04012   5.05175   5.05337   5.06267   5.06767
 Alpha virt. eigenvalues --    5.07402   5.08975   5.11269   5.19237   5.19865
 Alpha virt. eigenvalues --    5.27068   5.29134   5.31078   5.55991   5.63688
 Alpha virt. eigenvalues --    5.66964   5.80373   5.87412   6.18865   8.57875
 Alpha virt. eigenvalues --   14.32806  14.33542  14.35783  14.41560  14.41652
 Alpha virt. eigenvalues --   14.42672  14.44347  14.48643  14.54119  14.67476
 Alpha virt. eigenvalues --   17.33459  17.58594  17.82874  50.00521  50.07571
 Alpha virt. eigenvalues --  189.61595
  Beta  occ. eigenvalues --  -89.16337 -19.30193 -19.29472  -8.19058  -6.14055
  Beta  occ. eigenvalues --   -6.13581  -6.12854  -1.18851  -1.10313  -0.75851
  Beta  occ. eigenvalues --   -0.59018  -0.55265  -0.52143  -0.50049  -0.41764
  Beta  occ. eigenvalues --   -0.41357
  Beta virt. eigenvalues --   -0.06400   0.00975   0.06254   0.07136   0.09507
  Beta virt. eigenvalues --    0.10170   0.13988   0.18911   0.23354   0.24543
  Beta virt. eigenvalues --    0.24901   0.26068   0.28014   0.30252   0.32164
  Beta virt. eigenvalues --    0.33021   0.33883   0.36217   0.37750   0.39988
  Beta virt. eigenvalues --    0.40518   0.40939   0.45922   0.57291   0.65600
  Beta virt. eigenvalues --    0.78653   0.83681   0.87082   0.88042   0.93600
  Beta virt. eigenvalues --    0.94546   0.98147   0.99361   1.00490   1.02846
  Beta virt. eigenvalues --    1.05638   1.06961   1.10370   1.11077   1.12343
  Beta virt. eigenvalues --    1.15111   1.18298   1.25892   1.31464   1.35226
  Beta virt. eigenvalues --    1.36832   1.46325   1.67994   1.68986   1.73697
  Beta virt. eigenvalues --    1.78041   1.79009   1.92412   1.95795   2.08744
  Beta virt. eigenvalues --    2.09375   2.19805   2.33599   2.39299   2.48069
  Beta virt. eigenvalues --    3.39773   3.42685   3.45526   3.51673   3.52097
  Beta virt. eigenvalues --    3.55452   3.56927   3.64465   3.68385   3.71460
  Beta virt. eigenvalues --    4.57190   4.58788   4.60491   4.60640   4.90039
  Beta virt. eigenvalues --    5.02466   5.04824   5.05894   5.06101   5.07523
  Beta virt. eigenvalues --    5.09328   5.09940   5.11008   5.11873   5.20274
  Beta virt. eigenvalues --    5.21112   5.27795   5.29594   5.31693   5.56567
  Beta virt. eigenvalues --    5.64757   5.67315   5.82287   5.87944   6.19377
  Beta virt. eigenvalues --    8.58282  14.35167  14.37004  14.38565  14.42413
  Beta virt. eigenvalues --   14.42871  14.45013  14.46633  14.49515  14.54486
  Beta virt. eigenvalues --   14.69690  17.34856  17.58919  17.83195  50.00667
  Beta virt. eigenvalues --   50.08430 189.61902
          Condensed to atoms (all electrons):
              1          2          3          4
     1  S   15.212525   0.069854   0.152731   0.008425
     2  O    0.069854   8.445510  -0.005924   0.203975
     3  O    0.152731  -0.005924   8.172473   0.000822
     4  H    0.008425   0.203975   0.000822   0.309724
 Mulliken atomic charges:
              1
     1  S    0.556465
     2  O   -0.713415
     3  O   -0.320102
     4  H    0.477053
 Sum of Mulliken atomic charges =   0.00000
 Mulliken charges with hydrogens summed into heavy atoms:
              1
     1  S    0.556465
     2  O   -0.236362
     3  O   -0.320102
 Sum of Mulliken charges with hydrogens summed into heavy atoms =   0.00000
          Atomic-Atomic Spin Densities.
              1          2          3          4
     1  S    0.873281  -0.050169  -0.185753  -0.000287
     2  O   -0.050169   0.070444   0.011685  -0.001477
     3  O   -0.185753   0.011685   0.506068  -0.000275
     4  H   -0.000287  -0.001477  -0.000275   0.002759
 Mulliken atomic spin densities:
              1
     1  S    0.637072
     2  O    0.030484
     3  O    0.331724
     4  H    0.000720
 Sum of Mulliken atomic spin densities =   1.00000
 Electronic spatial extent (au):  <R**2>=            195.5076
 Charge=              0.0000 electrons
 Dipole moment (field-independent basis, Debye):
    X=             -0.1776    Y=             -0.5543    Z=              0.6113  Tot=              0.8441
 Quadrupole moment (field-independent basis, Debye-Ang):
   XX=            -27.5629   YY=            -21.1864   ZZ=            -23.6918
   XY=              3.1276   XZ=              0.7300   YZ=              0.9695
 Traceless Quadrupole moment (field-independent basis, Debye-Ang):
   XX=             -3.4159   YY=              2.9606   ZZ=              0.4552
   XY=              3.1276   XZ=              0.7300   YZ=              0.9695
 Octapole moment (field-independent basis, Debye-Ang**2):
  XXX=             -3.2794  YYY=              3.5051  ZZZ=              0.0484  XYY=              3.7114
  XXY=              0.5929  XXZ=              0.8572  XZZ=             -0.5579  YZZ=              1.0008
  YYZ=              1.0481  XYZ=              1.2564
 Hexadecapole moment (field-independent basis, Debye-Ang**3):
 XXXX=           -161.0174 YYYY=            -56.6758 ZZZZ=            -25.0954 XXXY=              5.2316
 XXXZ=              1.0366 YYYX=              4.3299 YYYZ=              1.4755 ZZZX=              0.3771
 ZZZY=              0.6765 XXYY=            -30.8642 XXZZ=            -30.0272 YYZZ=            -14.4554
 XXYZ=              1.7609 YYXZ=              1.2903 ZZXY=              0.1765
 N-N= 1.049598255438D+02 E-N=-2.262216358946D+03  KE= 8.205988170212D+02
                          Isotropic Fermi Contact Couplings
        Atom                 a.u.       MegaHertz       Gauss      10(-4) cm-1
     1  S(33)              0.07680      26.37769       9.41222       8.79865
     2  O(17)              0.01213      -7.35458      -2.62430      -2.45322
     3  O(17)              0.05478     -33.20605     -11.84874     -11.07634
     4  H(1)               0.00027       1.21632       0.43401       0.40572
 --------------------------------------------------------
       Center         ----  Spin Dipole Couplings  ----
                      3XX-RR        3YY-RR        3ZZ-RR
 --------------------------------------------------------
     1   Atom       -1.490653     -1.606903      3.097556
     2   Atom       -0.216156     -0.119722      0.335878
     3   Atom       -0.818432     -0.843659      1.662091
     4   Atom       -0.000803      0.010099     -0.009297
 --------------------------------------------------------
                        XY            XZ            YZ
 --------------------------------------------------------
     1   Atom        0.030104     -0.012722      0.195737
     2   Atom       -0.025396      0.025256     -0.091193
     3   Atom        0.023036      0.067967      0.066001
     4   Atom        0.004323      0.001394      0.003314
 --------------------------------------------------------


 ---------------------------------------------------------------------------------
              Anisotropic Spin Dipole Couplings in Principal Axis System
 ---------------------------------------------------------------------------------

       Atom             a.u.   MegaHertz   Gauss  10(-4) cm-1        Axes

              Baa    -1.6222   -66.507   -23.731   -22.184 -0.2267  0.9731 -0.0410
     1 S(33)  Bbb    -1.4836   -60.824   -21.704   -20.289  0.9740  0.2266 -0.0070
              Bcc     3.1057   127.331    45.435    42.473 -0.0025  0.0415  0.9991
 
              Baa    -0.2225    16.096     5.744     5.369  0.9719  0.2354 -0.0055
     2 O(17)  Bbb    -0.1325     9.591     3.422     3.199 -0.2297  0.9529  0.1979
              Bcc     0.3550   -25.687    -9.166    -8.568  0.0518 -0.1911  0.9802
 
              Baa    -0.8575    62.049    22.141    20.697 -0.4956  0.8685 -0.0094
     3 O(17)  Bbb    -0.8082    58.481    20.867    19.507  0.8681  0.4950 -0.0371
              Bcc     1.6657  -120.530   -43.008   -40.205  0.0276  0.0265  0.9993
 
              Baa    -0.0099    -5.283    -1.885    -1.762 -0.0819 -0.1457  0.9859
     4 H(1)   Bbb    -0.0023    -1.229    -0.438    -0.410  0.9415 -0.3358  0.0286
              Bcc     0.0122     6.512     2.324     2.172  0.3270  0.9306  0.1647
 

 ---------------------------------------------------------------------------------

 1\1\ CPUSERV-QCEXNOD11\SP\UwB97XD\6-311+G(3df)\H1O2S1(2)\ROOT\21-Aug-2
 025\0\\#sp wB97XD/6-311+G(3df)\\Optimizacion del hoso\\0,2\S,0,-0.2048
 43,-0.522008,0.020308\O,0,1.452132,0.332471,-0.05504\O,0,-1.191636,0.5
 65438,-0.022037\H,0,1.171521,1.208845,0.307681\\Version=EM64L-G09RevC.
 01\State=2-A\HF=-549.2018812\S2=0.755753\S2-1=0.\S2A=0.750024\RMSD=4.5
 09e-09\Dipole=-0.0522037,-0.2217442,0.2416378\Quadrupole=-2.8584137,2.
 5302167,0.3281969,1.9471867,0.4925544,0.7425214\PG=C01 [X(H1O2S1)]\\@


 ... I FELL INTO A REVERIE ... THE ATOMS WERE GAMBOLING BEFORE MY EYES
 ... I SAW HOW TWO SMALL ONES UNITED TO FORM A PAIR;
 HOW THE LARGER ONES SEIZED TWO OF THE SMALLER ONES;
 HOW STILL LARGER ONES KEPT HOLD OF THREE OR FOUR
 SMALLER ONES ... I SAW HOW THE LARGER ONES FORMED A CHAIN ...
 THIS WAS THE ORIGIN OF THE STRUCTURE THEORY.

                                   -- C.F.KEKULE VON STRADONITZ
 Job cpu time:  0 days  0 hours  3 minutes 33.5 seconds.
 File lengths (MBytes):  RWF=     21 Int=      0 D2E=      0 Chk=      2 Scr=      1
 Normal termination of Gaussian 09 at Thu Aug 21 00:36:55 2025.
