 Entering Gaussian System, Link 0=g09
 Initial command:
 /soft/g09.c01/g09/l1.exe /scr/macias/389591.qcexmaster_vib3_0.10/Gau-17157.inp -scrdir=/scr/macias/389591.qcexmaster_vib3_0.10/
 Entering Link 1 = /soft/g09.c01/g09/l1.exe PID=     17164.
  
 Copyright (c) 1988,1990,1992,1993,1995,1998,2003,2009,2011,
            Gaussian, Inc.  All Rights Reserved.
  
 This is part of the Gaussian(R) 09 program.  It is based on
 the Gaussian(R) 03 system (copyright 2003, Gaussian, Inc.),
 the Gaussian(R) 98 system (copyright 1998, Gaussian, Inc.),
 the Gaussian(R) 94 system (copyright 1995, Gaussian, Inc.),
 the Gaussian 92(TM) system (copyright 1992, Gaussian, Inc.),
 the Gaussian 90(TM) system (copyright 1990, Gaussian, Inc.),
 the Gaussian 88(TM) system (copyright 1988, Gaussian, Inc.),
 the Gaussian 86(TM) system (copyright 1986, Carnegie Mellon
 University), and the Gaussian 82(TM) system (copyright 1983,
 Carnegie Mellon University). Gaussian is a federally registered
 trademark of Gaussian, Inc.
  
 This software contains proprietary and confidential information,
 including trade secrets, belonging to Gaussian, Inc.
  
 This software is provided under written license and may be
 used, copied, transmitted, or stored only in accord with that
 written license.
  
 The following legend is applicable only to US Government
 contracts under FAR:
  
                    RESTRICTED RIGHTS LEGEND
  
 Use, reproduction and disclosure by the US Government is
 subject to restrictions as set forth in subparagraphs (a)
 and (c) of the Commercial Computer Software - Restricted
 Rights clause in FAR 52.227-19.
  
 Gaussian, Inc.
 340 Quinnipiac St., Bldg. 40, Wallingford CT 06492
  
  
 ---------------------------------------------------------------
 Warning -- This program may not be used in any manner that
 competes with the business of Gaussian, Inc. or will provide
 assistance to any competitor of Gaussian, Inc.  The licensee
 of this program is prohibited from giving any competitor of
 Gaussian, Inc. access to this program.  By using this program,
 the user acknowledges that Gaussian, Inc. is engaged in the
 business of creating and licensing software in the field of
 computational chemistry and represents and warrants to the
 licensee that it is not a competitor of Gaussian, Inc. and that
 it will not use this program in any manner prohibited above.
 ---------------------------------------------------------------
  

 Cite this work as:
 Gaussian 09, Revision C.01,
 M. J. Frisch, G. W. Trucks, H. B. Schlegel, G. E. Scuseria, 
 M. A. Robb, J. R. Cheeseman, G. Scalmani, V. Barone, B. Mennucci, 
 G. A. Petersson, H. Nakatsuji, M. Caricato, X. Li, H. P. Hratchian, 
 A. F. Izmaylov, J. Bloino, G. Zheng, J. L. Sonnenberg, M. Hada, 
 M. Ehara, K. Toyota, R. Fukuda, J. Hasegawa, M. Ishida, T. Nakajima, 
 Y. Honda, O. Kitao, H. Nakai, T. Vreven, J. A. Montgomery, Jr., 
 J. E. Peralta, F. Ogliaro, M. Bearpark, J. J. Heyd, E. Brothers, 
 K. N. Kudin, V. N. Staroverov, T. Keith, R. Kobayashi, J. Normand, 
 K. Raghavachari, A. Rendell, J. C. Burant, S. S. Iyengar, J. Tomasi, 
 M. Cossi, N. Rega, J. M. Millam, M. Klene, J. E. Knox, J. B. Cross, 
 V. Bakken, C. Adamo, J. Jaramillo, R. Gomperts, R. E. Stratmann, 
 O. Yazyev, A. J. Austin, R. Cammi, C. Pomelli, J. W. Ochterski, 
 R. L. Martin, K. Morokuma, V. G. Zakrzewski, G. A. Voth, 
 P. Salvador, J. J. Dannenberg, S. Dapprich, A. D. Daniels, 
 O. Farkas, J. B. Foresman, J. V. Ortiz, J. Cioslowski, 
 and D. J. Fox, Gaussian, Inc., Wallingford CT, 2010.
 
  
 -----  Compilado por  -----------------------------------------
  
  Servicio de Calculo | Servicio de Informatica U. de Valencia
     calculo@uv.es    |  E-46100 Burjassot (Valencia) SPAIN
  
 ---------------------------------------------------------------
  
 ******************************************
 Gaussian 09:  EM64L-G09RevC.01 23-Sep-2011
                21-Aug-2025 
 ******************************************
 %chk=opt_freq.chk
 %nproc=6
 Will use up to    6 processors via shared memory.
 %mem=20GB
 Default route:  CacheSize=131072
 -----------------------
 #sp wB97XD/6-311+G(3df)
 -----------------------
 1/4=131072,38=1/1;
 2/4=131072,12=2,17=6,18=5,40=1/2;
 3/4=131072,5=4,6=6,7=16,11=2,16=1,25=1,30=1,74=-58/1,2,3;
 4/4=131072/1;
 5/4=131072,5=2,38=5/2;
 6/4=131072,7=2,8=2,9=2,10=2,28=1/1;
 99/4=131072,5=1,9=1/99;
 ---------------------
 Optimizacion del hoso
 ---------------------
 Charge =  0 Multiplicity = 2
 Symbolic Z-Matrix:
 S                    -0.10584  -0.45001   0.01431 
 O                     1.23913   0.21847  -0.04004 
 O                    -1.18264   0.53544  -0.01904 
 H                     1.25252   1.14885   0.23568 
 
                          Input orientation:                          
 ---------------------------------------------------------------------
 Center     Atomic      Atomic             Coordinates (Angstroms)
 Number     Number       Type             X           Y           Z
 ---------------------------------------------------------------------
      1         16           0       -0.105843   -0.450008    0.014308
      2          8           0        1.239132    0.218471   -0.040040
      3          8           0       -1.182636    0.535438   -0.019037
      4          1           0        1.252521    1.148845    0.235681
 ---------------------------------------------------------------------
                    Distance matrix (angstroms):
                    1          2          3          4
     1  S    0.000000
     2  O    1.502922   0.000000
     3  O    1.460034   2.442513   0.000000
     4  H    2.109618   0.970462   2.524112   0.000000
 Stoichiometry    HO2S(2)
 Framework group  C1[X(HO2S)]
 Deg. of freedom     6
 Full point group                 C1      NOp   1
 Largest Abelian subgroup         C1      NOp   1
 Largest concise Abelian subgroup C1      NOp   1
                         Standard orientation:                         
 ---------------------------------------------------------------------
 Center     Atomic      Atomic             Coordinates (Angstroms)
 Number     Number       Type             X           Y           Z
 ---------------------------------------------------------------------
      1         16           0       -0.088638   -0.453142    0.015901
      2          8           0        1.229284    0.266842   -0.043094
      3          8           0       -1.202904    0.489724   -0.017495
      4          1           0        1.207170    1.197740    0.230288
 ---------------------------------------------------------------------
 Rotational constants (GHZ):     38.8766432     10.2802388      8.1532372
 Standard basis: 6-311+G(3df) (5D, 7F)
 There are   128 symmetry adapted basis functions of A   symmetry.
 Integral buffers will be    131072 words long.
 Raffenetti 2 integral format.
 Two-electron integral symmetry is turned on.
   128 basis functions,   193 primitive gaussians,   146 cartesian basis functions
    17 alpha electrons       16 beta electrons
       nuclear repulsion energy       115.3798747686 Hartrees.
 NAtoms=    4 NActive=    4 NUniq=    4 SFac= 1.00D+00 NAtFMM=   60 NAOKFM=F Big=F
 Nuclear repulsion after empirical dispersion term =      115.3796371063 Hartrees.
 One-electron integrals computed using PRISM.
 NBasis=   128 RedAO= T  NBF=   128
 NBsUse=   128 1.00D-06 NBFU=   128
 Harris functional with IExCor= 4639 diagonalized for initial guess.
 ExpMin= 4.05D-02 ExpMax= 9.34D+04 ExpMxC= 3.17D+03 IAcc=2 IRadAn=         4 AccDes= 0.00D+00
 HarFok:  IExCor= 4639 AccDes= 0.00D+00 IRadAn=         4 IDoV= 1
 ScaDFX=  1.000000  1.000000  1.000000  1.000000
 FoFCou: FMM=F IPFlag=           0 FMFlag=      100000 FMFlg1=           0
         NFxFlg=           0 DoJE=T BraDBF=F KetDBF=T FulRan=T
         Omega=  0.000000  0.000000  1.000000  0.000000  0.000000 ICntrl=     500 IOpCl=  0
         NMat0=    1 NMatS0=    1 NMatT0=    0 NMatD0=    1 NMtDS0=    0 NMtDT0=    0
         I1Cent=           4 NGrid=           0.
 Petite list used in FoFCou.
 Initial guess orbital symmetries:
 Alpha Orbitals:
       Occupied  (A) (A) (A) (A) (A) (A) (A) (A) (A) (A) (A) (A)
                 (A) (A) (A) (A) (A)
       Virtual   (A) (A) (A) (A) (A) (A) (A) (A) (A) (A) (A) (A)
                 (A) (A) (A) (A) (A) (A) (A) (A) (A) (A) (A) (A)
                 (A) (A) (A) (A) (A) (A) (A) (A) (A) (A) (A) (A)
                 (A) (A) (A) (A) (A) (A) (A) (A) (A) (A) (A) (A)
                 (A) (A) (A) (A) (A) (A) (A) (A) (A) (A) (A) (A)
                 (A) (A) (A) (A) (A) (A) (A) (A) (A) (A) (A) (A)
                 (A) (A) (A) (A) (A) (A) (A) (A) (A) (A) (A) (A)
                 (A) (A) (A) (A) (A) (A) (A) (A) (A) (A) (A) (A)
                 (A) (A) (A) (A) (A) (A) (A) (A) (A) (A) (A) (A)
                 (A) (A) (A)
 Beta  Orbitals:
       Occupied  (A) (A) (A) (A) (A) (A) (A) (A) (A) (A) (A) (A)
                 (A) (A) (A) (A)
       Virtual   (A) (A) (A) (A) (A) (A) (A) (A) (A) (A) (A) (A)
                 (A) (A) (A) (A) (A) (A) (A) (A) (A) (A) (A) (A)
                 (A) (A) (A) (A) (A) (A) (A) (A) (A) (A) (A) (A)
                 (A) (A) (A) (A) (A) (A) (A) (A) (A) (A) (A) (A)
                 (A) (A) (A) (A) (A) (A) (A) (A) (A) (A) (A) (A)
                 (A) (A) (A) (A) (A) (A) (A) (A) (A) (A) (A) (A)
                 (A) (A) (A) (A) (A) (A) (A) (A) (A) (A) (A) (A)
                 (A) (A) (A) (A) (A) (A) (A) (A) (A) (A) (A) (A)
                 (A) (A) (A) (A) (A) (A) (A) (A) (A) (A) (A) (A)
                 (A) (A) (A) (A)
 The electronic state of the initial guess is 2-A.
 Initial guess <Sx>= 0.0000 <Sy>= 0.0000 <Sz>= 0.5000 <S**2>= 0.7500 S= 0.5000
 Requested convergence on RMS density matrix=1.00D-08 within 128 cycles.
 Requested convergence on MAX density matrix=1.00D-06.
 Requested convergence on             energy=1.00D-06.
 No special actions if energy rises.
 FoFJK:  IHMeth= 1 ICntrl=     0 DoSepK=T KAlg= 1 I1Cent= 0 FoldK=F
 FoFJK:  IHMeth= 1 ICntrl=     0 DoSepK=T KAlg= 1 I1Cent= 0 FoldK=F
 FoFJK:  IHMeth= 1 ICntrl=     0 DoSepK=T KAlg= 1 I1Cent= 0 FoldK=F
 FoFJK:  IHMeth= 1 ICntrl=     0 DoSepK=T KAlg= 1 I1Cent= 0 FoldK=F
 FoFJK:  IHMeth= 1 ICntrl=     0 DoSepK=T KAlg= 1 I1Cent= 0 FoldK=F
 FoFJK:  IHMeth= 1 ICntrl=     0 DoSepK=T KAlg= 1 I1Cent= 0 FoldK=F
 FoFJK:  IHMeth= 1 ICntrl=     0 DoSepK=T KAlg= 1 I1Cent= 0 FoldK=F
 FoFJK:  IHMeth= 1 ICntrl=     0 DoSepK=T KAlg= 1 I1Cent= 0 FoldK=F
 FoFJK:  IHMeth= 1 ICntrl=     0 DoSepK=T KAlg= 1 I1Cent= 0 FoldK=F
 FoFJK:  IHMeth= 1 ICntrl=     0 DoSepK=T KAlg= 1 I1Cent= 0 FoldK=F
 FoFJK:  IHMeth= 1 ICntrl=     0 DoSepK=T KAlg= 1 I1Cent= 0 FoldK=F
 FoFJK:  IHMeth= 1 ICntrl=     0 DoSepK=T KAlg= 1 I1Cent= 0 FoldK=F
 FoFJK:  IHMeth= 1 ICntrl=     0 DoSepK=T KAlg= 1 I1Cent= 0 FoldK=F
 FoFJK:  IHMeth= 1 ICntrl=     0 DoSepK=T KAlg= 1 I1Cent= 0 FoldK=F
 FoFJK:  IHMeth= 1 ICntrl=     0 DoSepK=T KAlg= 1 I1Cent= 0 FoldK=F
 SCF Done:  E(UwB97XD) =  -549.212109623     A.U. after   15 cycles
             Convg  =    0.4939D-08             -V/T =  2.0012
 <Sx>= 0.0000 <Sy>= 0.0000 <Sz>= 0.5000 <S**2>= 0.7554 S= 0.5027
 <L.S>= 0.000000000000E+00
 Annihilation of the first spin contaminant:
 S**2 before annihilation     0.7554,   after     0.7500

 **********************************************************************

            Population analysis using the SCF density.

 **********************************************************************

 Orbital symmetries:
 Alpha Orbitals:
       Occupied  (A) (A) (A) (A) (A) (A) (A) (A) (A) (A) (A) (A)
                 (A) (A) (A) (A) (A)
       Virtual   (A) (A) (A) (A) (A) (A) (A) (A) (A) (A) (A) (A)
                 (A) (A) (A) (A) (A) (A) (A) (A) (A) (A) (A) (A)
                 (A) (A) (A) (A) (A) (A) (A) (A) (A) (A) (A) (A)
                 (A) (A) (A) (A) (A) (A) (A) (A) (A) (A) (A) (A)
                 (A) (A) (A) (A) (A) (A) (A) (A) (A) (A) (A) (A)
                 (A) (A) (A) (A) (A) (A) (A) (A) (A) (A) (A) (A)
                 (A) (A) (A) (A) (A) (A) (A) (A) (A) (A) (A) (A)
                 (A) (A) (A) (A) (A) (A) (A) (A) (A) (A) (A) (A)
                 (A) (A) (A) (A) (A) (A) (A) (A) (A) (A) (A) (A)
                 (A) (A) (A)
 Beta  Orbitals:
       Occupied  (A) (A) (A) (A) (A) (A) (A) (A) (A) (A) (A) (A)
                 (A) (A) (A) (A)
       Virtual   (A) (A) (A) (A) (A) (A) (A) (A) (A) (A) (A) (A)
                 (A) (A) (A) (A) (A) (A) (A) (A) (A) (A) (A) (A)
                 (A) (A) (A) (A) (A) (A) (A) (A) (A) (A) (A) (A)
                 (A) (A) (A) (A) (A) (A) (A) (A) (A) (A) (A) (A)
                 (A) (A) (A) (A) (A) (A) (A) (A) (A) (A) (A) (A)
                 (A) (A) (A) (A) (A) (A) (A) (A) (A) (A) (A) (A)
                 (A) (A) (A) (A) (A) (A) (A) (A) (A) (A) (A) (A)
                 (A) (A) (A) (A) (A) (A) (A) (A) (A) (A) (A) (A)
                 (A) (A) (A) (A) (A) (A) (A) (A) (A) (A) (A) (A)
                 (A) (A) (A) (A)
 The electronic state is 2-A.
 Alpha  occ. eigenvalues --  -89.13651 -19.33285 -19.26739  -8.16559  -6.11506
 Alpha  occ. eigenvalues --   -6.11246  -6.10853  -1.26383  -1.14878  -0.82044
 Alpha  occ. eigenvalues --   -0.64007  -0.58959  -0.58488  -0.49307  -0.47473
 Alpha  occ. eigenvalues --   -0.41949  -0.29157
 Alpha virt. eigenvalues --    0.05241   0.07558   0.08115   0.09392   0.13023
 Alpha virt. eigenvalues --    0.14468   0.19065   0.22175   0.24270   0.25329
 Alpha virt. eigenvalues --    0.26923   0.28403   0.30392   0.32815   0.33429
 Alpha virt. eigenvalues --    0.35981   0.37589   0.38639   0.39709   0.41024
 Alpha virt. eigenvalues --    0.41648   0.54556   0.55818   0.70010   0.78162
 Alpha virt. eigenvalues --    0.80567   0.86927   0.87954   0.93600   0.95742
 Alpha virt. eigenvalues --    0.96864   0.97262   1.01074   1.03224   1.05831
 Alpha virt. eigenvalues --    1.09998   1.11139   1.14575   1.17440   1.18273
 Alpha virt. eigenvalues --    1.26700   1.30189   1.35442   1.39021   1.40895
 Alpha virt. eigenvalues --    1.45616   1.67350   1.70026   1.76157   1.83254
 Alpha virt. eigenvalues --    1.93145   2.03654   2.10496   2.12986   2.18325
 Alpha virt. eigenvalues --    2.22698   2.29935   2.40698   2.45498   3.36055
 Alpha virt. eigenvalues --    3.42598   3.45703   3.48213   3.49654   3.56958
 Alpha virt. eigenvalues --    3.59608   3.62239   3.71436   3.75943   4.56100
 Alpha virt. eigenvalues --    4.59316   4.62122   4.80825   4.94926   4.97575
 Alpha virt. eigenvalues --    5.03008   5.03503   5.04554   5.07178   5.10947
 Alpha virt. eigenvalues --    5.11419   5.12519   5.20390   5.25819   5.27729
 Alpha virt. eigenvalues --    5.44660   5.56143   5.64696   5.66515   5.68263
 Alpha virt. eigenvalues --    5.74383   5.90571   6.07272   6.71246   8.96746
 Alpha virt. eigenvalues --   14.30907  14.36132  14.38751  14.38901  14.41136
 Alpha virt. eigenvalues --   14.46840  14.49116  14.50947  14.67066  14.74078
 Alpha virt. eigenvalues --   17.37892  17.69654  17.99233  50.04006  50.13296
 Alpha virt. eigenvalues --  190.02984
  Beta  occ. eigenvalues --  -89.13267 -19.33001 -19.25904  -8.16212  -6.11275
  Beta  occ. eigenvalues --   -6.10646  -6.10006  -1.25468  -1.13206  -0.80339
  Beta  occ. eigenvalues --   -0.62325  -0.58074  -0.55596  -0.47228  -0.43406
  Beta  occ. eigenvalues --   -0.40630
  Beta virt. eigenvalues --   -0.02231   0.05525   0.07920   0.08494   0.10014
  Beta virt. eigenvalues --    0.13824   0.15545   0.19497   0.22430   0.24584
  Beta virt. eigenvalues --    0.25557   0.27434   0.28801   0.30691   0.32957
  Beta virt. eigenvalues --    0.34537   0.36259   0.38048   0.39423   0.40848
  Beta virt. eigenvalues --    0.41683   0.42399   0.55154   0.56090   0.70489
  Beta virt. eigenvalues --    0.78649   0.80954   0.87405   0.88695   0.94161
  Beta virt. eigenvalues --    0.96383   0.97583   0.98327   1.01832   1.04097
  Beta virt. eigenvalues --    1.06550   1.11074   1.13061   1.14835   1.18396
  Beta virt. eigenvalues --    1.18815   1.27972   1.30698   1.36673   1.39693
  Beta virt. eigenvalues --    1.41378   1.45984   1.70564   1.71906   1.77844
  Beta virt. eigenvalues --    1.84770   1.93838   2.04898   2.12863   2.13318
  Beta virt. eigenvalues --    2.18994   2.23335   2.30576   2.41478   2.46046
  Beta virt. eigenvalues --    3.36945   3.43685   3.47263   3.50073   3.51419
  Beta virt. eigenvalues --    3.59110   3.60357   3.63028   3.72487   3.76407
  Beta virt. eigenvalues --    4.56678   4.59499   4.62946   4.81569   4.95335
  Beta virt. eigenvalues --    4.98161   5.03663   5.04580   5.05394   5.08293
  Beta virt. eigenvalues --    5.13198   5.14158   5.14812   5.21258   5.26806
  Beta virt. eigenvalues --    5.28931   5.45342   5.56849   5.65259   5.67401
  Beta virt. eigenvalues --    5.68979   5.75148   5.92022   6.07751   6.71661
  Beta virt. eigenvalues --    8.97059  14.32232  14.37705  14.40420  14.42450
  Beta virt. eigenvalues --   14.44052  14.48447  14.51740  14.51932  14.67826
  Beta virt. eigenvalues --   14.75858  17.39276  17.69924  17.99553  50.04277
  Beta virt. eigenvalues --   50.14025 190.03286
          Condensed to atoms (all electrons):
              1          2          3          4
     1  S   15.493080  -0.084929   0.129634   0.008530
     2  O   -0.084929   8.408220   0.008575   0.208458
     3  O    0.129634   0.008575   8.278539  -0.000975
     4  H    0.008530   0.208458  -0.000975   0.281577
 Mulliken atomic charges:
              1
     1  S    0.453685
     2  O   -0.540323
     3  O   -0.415773
     4  H    0.502411
 Sum of Mulliken atomic charges =   0.00000
 Mulliken charges with hydrogens summed into heavy atoms:
              1
     1  S    0.453685
     2  O   -0.037912
     3  O   -0.415773
 Sum of Mulliken charges with hydrogens summed into heavy atoms =   0.00000
          Atomic-Atomic Spin Densities.
              1          2          3          4
     1  S    1.004597  -0.142956  -0.206397  -0.001578
     2  O   -0.142956   0.192203   0.023988  -0.006840
     3  O   -0.206397   0.023988   0.461307  -0.000563
     4  H   -0.001578  -0.006840  -0.000563   0.010585
 Mulliken atomic spin densities:
              1
     1  S    0.653667
     2  O    0.066395
     3  O    0.278335
     4  H    0.001604
 Sum of Mulliken atomic spin densities =   1.00000
 Electronic spatial extent (au):  <R**2>=            168.7351
 Charge=              0.0000 electrons
 Dipole moment (field-independent basis, Debye):
    X=              2.1150    Y=              0.5362    Z=              0.4828  Tot=              2.2347
 Quadrupole moment (field-independent basis, Debye-Ang):
   XX=            -26.0964   YY=            -21.0572   ZZ=            -23.5500
   XY=              3.5911   XZ=              0.6597   YZ=              0.7795
 Traceless Quadrupole moment (field-independent basis, Debye-Ang):
   XX=             -2.5285   YY=              2.5106   ZZ=              0.0179
   XY=              3.5911   XZ=              0.6597   YZ=              0.7795
 Octapole moment (field-independent basis, Debye-Ang**2):
  XXX=              4.0799  YYY=              6.1901  ZZZ=             -0.0970  XYY=              5.0100
  XXY=              1.4360  XXZ=              0.8195  XZZ=              0.5809  YZZ=              1.3949
  YYZ=              0.9161  XYZ=              0.8922
 Hexadecapole moment (field-independent basis, Debye-Ang**3):
 XXXX=           -132.1069 YYYY=            -49.0895 ZZZZ=            -25.0380 XXXY=              6.4871
 XXXZ=              1.1699 YYYX=              7.2525 YYYZ=              1.3427 ZZZX=              0.3466
 ZZZY=              0.5596 XXYY=            -24.8037 XXZZ=            -25.4608 YYZZ=            -13.5798
 XXYZ=              1.2343 YYXZ=              1.1402 ZZXY=              0.6322
 N-N= 1.153796371063D+02 E-N=-2.293953424323D+03  KE= 8.214092194909D+02
                          Isotropic Fermi Contact Couplings
        Atom                 a.u.       MegaHertz       Gauss      10(-4) cm-1
     1  S(33)              0.11125      38.21041      13.63443      12.74562
     2  O(17)              0.02516     -15.25029      -5.44168      -5.08695
     3  O(17)              0.05061     -30.67831     -10.94678     -10.23318
     4  H(1)               0.00104       4.63605       1.65426       1.54642
 --------------------------------------------------------
       Center         ----  Spin Dipole Couplings  ----
                      3XX-RR        3YY-RR        3ZZ-RR
 --------------------------------------------------------
     1   Atom       -1.508842     -1.617380      3.126222
     2   Atom       -0.262668     -0.238795      0.501462
     3   Atom       -0.732979     -0.730441      1.463420
     4   Atom       -0.012721      0.024299     -0.011578
 --------------------------------------------------------
                        XY            XZ            YZ
 --------------------------------------------------------
     1   Atom       -0.007876     -0.075594      0.177688
     2   Atom        0.017232     -0.000636     -0.119811
     3   Atom        0.001029      0.089618      0.031851
     4   Atom        0.006932      0.001350      0.004662
 --------------------------------------------------------


 ---------------------------------------------------------------------------------
              Anisotropic Spin Dipole Couplings in Principal Axis System
 ---------------------------------------------------------------------------------

       Atom             a.u.   MegaHertz   Gauss  10(-4) cm-1        Axes

              Baa    -1.6242   -66.593   -23.762   -22.213  0.0441  0.9984 -0.0366
     1 S(33)  Bbb    -1.5099   -61.903   -22.088   -20.649  0.9989 -0.0435  0.0180
              Bcc     3.1341   128.496    45.850    42.861 -0.0163  0.0374  0.9992
 
              Baa    -0.2773    20.065     7.160     6.693  0.7568 -0.6461 -0.0988
     2 O(17)  Bbb    -0.2431    17.590     6.276     5.867  0.6536  0.7471  0.1208
              Bcc     0.5204   -37.655   -13.436   -12.560 -0.0042 -0.1560  0.9878
 
              Baa    -0.7366    53.303    19.020    17.780  0.9981  0.0466 -0.0413
     3 O(17)  Bbb    -0.7309    52.887    18.871    17.641 -0.0472  0.9988 -0.0126
              Bcc     1.4675  -106.190   -37.891   -35.421  0.0407  0.0145  0.9991
 
              Baa    -0.0141    -7.525    -2.685    -2.510  0.9581 -0.1428 -0.2485
     4 H(1)   Bbb    -0.0121    -6.439    -2.298    -2.148  0.2244 -0.1659  0.9603
              Bcc     0.0262    13.964     4.983     4.658  0.1783  0.9758  0.1269
 

 ---------------------------------------------------------------------------------

 1\1\ CPUSERV-QCEXNOD13\SP\UwB97XD\6-311+G(3df)\H1O2S1(2)\ROOT\21-Aug-2
 025\0\\#sp wB97XD/6-311+G(3df)\\Optimizacion del hoso\\0,2\S,0,-0.1058
 43,-0.450008,0.014308\O,0,1.239132,0.218471,-0.04004\O,0,-1.182636,0.5
 35438,-0.019037\H,0,1.252521,1.148845,0.235681\\Version=EM64L-G09RevC.
 01\State=2-A\HF=-549.2121096\S2=0.755444\S2-1=0.\S2A=0.75002\RMSD=4.93
 9e-09\Dipole=0.839244,0.1780487,0.1922637\Quadrupole=-1.6696279,1.6512
 603,0.0183677,2.8045257,0.5157718,0.5703706\PG=C01 [X(H1O2S1)]\\@


 I WISH TO HAVE NO CONNECTION WITH ANY SHIP THAT DOES NOT SAIL FAST,
 FOR I INTEND TO GO IN HARM'S WAY.
     -- JOHN PAUL JONES, USN 1747-1792
 Job cpu time:  0 days  0 hours  6 minutes 25.6 seconds.
 File lengths (MBytes):  RWF=     21 Int=      0 D2E=      0 Chk=      2 Scr=      1
 Normal termination of Gaussian 09 at Thu Aug 21 00:40:03 2025.
