 Entering Gaussian System, Link 0=g09
 Initial command:
 /soft/g09.c01/g09/l1.exe /scr/macias/389594.qcexmaster_vib4_-0.20/Gau-25672.inp -scrdir=/scr/macias/389594.qcexmaster_vib4_-0.20/
 Entering Link 1 = /soft/g09.c01/g09/l1.exe PID=     25695.
  
 Copyright (c) 1988,1990,1992,1993,1995,1998,2003,2009,2011,
            Gaussian, Inc.  All Rights Reserved.
  
 This is part of the Gaussian(R) 09 program.  It is based on
 the Gaussian(R) 03 system (copyright 2003, Gaussian, Inc.),
 the Gaussian(R) 98 system (copyright 1998, Gaussian, Inc.),
 the Gaussian(R) 94 system (copyright 1995, Gaussian, Inc.),
 the Gaussian 92(TM) system (copyright 1992, Gaussian, Inc.),
 the Gaussian 90(TM) system (copyright 1990, Gaussian, Inc.),
 the Gaussian 88(TM) system (copyright 1988, Gaussian, Inc.),
 the Gaussian 86(TM) system (copyright 1986, Carnegie Mellon
 University), and the Gaussian 82(TM) system (copyright 1983,
 Carnegie Mellon University). Gaussian is a federally registered
 trademark of Gaussian, Inc.
  
 This software contains proprietary and confidential information,
 including trade secrets, belonging to Gaussian, Inc.
  
 This software is provided under written license and may be
 used, copied, transmitted, or stored only in accord with that
 written license.
  
 The following legend is applicable only to US Government
 contracts under FAR:
  
                    RESTRICTED RIGHTS LEGEND
  
 Use, reproduction and disclosure by the US Government is
 subject to restrictions as set forth in subparagraphs (a)
 and (c) of the Commercial Computer Software - Restricted
 Rights clause in FAR 52.227-19.
  
 Gaussian, Inc.
 340 Quinnipiac St., Bldg. 40, Wallingford CT 06492
  
  
 ---------------------------------------------------------------
 Warning -- This program may not be used in any manner that
 competes with the business of Gaussian, Inc. or will provide
 assistance to any competitor of Gaussian, Inc.  The licensee
 of this program is prohibited from giving any competitor of
 Gaussian, Inc. access to this program.  By using this program,
 the user acknowledges that Gaussian, Inc. is engaged in the
 business of creating and licensing software in the field of
 computational chemistry and represents and warrants to the
 licensee that it is not a competitor of Gaussian, Inc. and that
 it will not use this program in any manner prohibited above.
 ---------------------------------------------------------------
  

 Cite this work as:
 Gaussian 09, Revision C.01,
 M. J. Frisch, G. W. Trucks, H. B. Schlegel, G. E. Scuseria, 
 M. A. Robb, J. R. Cheeseman, G. Scalmani, V. Barone, B. Mennucci, 
 G. A. Petersson, H. Nakatsuji, M. Caricato, X. Li, H. P. Hratchian, 
 A. F. Izmaylov, J. Bloino, G. Zheng, J. L. Sonnenberg, M. Hada, 
 M. Ehara, K. Toyota, R. Fukuda, J. Hasegawa, M. Ishida, T. Nakajima, 
 Y. Honda, O. Kitao, H. Nakai, T. Vreven, J. A. Montgomery, Jr., 
 J. E. Peralta, F. Ogliaro, M. Bearpark, J. J. Heyd, E. Brothers, 
 K. N. Kudin, V. N. Staroverov, T. Keith, R. Kobayashi, J. Normand, 
 K. Raghavachari, A. Rendell, J. C. Burant, S. S. Iyengar, J. Tomasi, 
 M. Cossi, N. Rega, J. M. Millam, M. Klene, J. E. Knox, J. B. Cross, 
 V. Bakken, C. Adamo, J. Jaramillo, R. Gomperts, R. E. Stratmann, 
 O. Yazyev, A. J. Austin, R. Cammi, C. Pomelli, J. W. Ochterski, 
 R. L. Martin, K. Morokuma, V. G. Zakrzewski, G. A. Voth, 
 P. Salvador, J. J. Dannenberg, S. Dapprich, A. D. Daniels, 
 O. Farkas, J. B. Foresman, J. V. Ortiz, J. Cioslowski, 
 and D. J. Fox, Gaussian, Inc., Wallingford CT, 2010.
 
  
 -----  Compilado por  -----------------------------------------
  
  Servicio de Calculo | Servicio de Informatica U. de Valencia
     calculo@uv.es    |  E-46100 Burjassot (Valencia) SPAIN
  
 ---------------------------------------------------------------
  
 ******************************************
 Gaussian 09:  EM64L-G09RevC.01 23-Sep-2011
                20-Aug-2025 
 ******************************************
 %chk=opt_freq.chk
 %nproc=6
 Will use up to    6 processors via shared memory.
 %mem=20GB
 Default route:  CacheSize=131072
 -----------------------
 #sp wB97XD/6-311+G(3df)
 -----------------------
 1/4=131072,38=1/1;
 2/4=131072,12=2,17=6,18=5,40=1/2;
 3/4=131072,5=4,6=6,7=16,11=2,16=1,25=1,30=1,74=-58/1,2,3;
 4/4=131072/1;
 5/4=131072,5=2,38=5/2;
 6/4=131072,7=2,8=2,9=2,10=2,28=1/1;
 99/4=131072,5=1,9=1/99;
 ---------------------
 Optimizacion del hoso
 ---------------------
 Charge =  0 Multiplicity = 2
 Symbolic Z-Matrix:
 S                    -0.14684  -0.47801   0.01431 
 O                     1.30013   0.26847  -0.04104 
 O                    -1.17164   0.53944  -0.02004 
 H                     1.41752   1.20685   0.22568 
 
                          Input orientation:                          
 ---------------------------------------------------------------------
 Center     Atomic      Atomic             Coordinates (Angstroms)
 Number     Number       Type             X           Y           Z
 ---------------------------------------------------------------------
      1         16           0       -0.146843   -0.478008    0.014308
      2          8           0        1.300132    0.268471   -0.041040
      3          8           0       -1.171636    0.539438   -0.020037
      4          1           0        1.417521    1.206845    0.225681
 ---------------------------------------------------------------------
                    Distance matrix (angstroms):
                    1          2          3          4
     1  S    0.000000
     2  O    1.629120   0.000000
     3  O    1.444499   2.486665   0.000000
     4  H    2.308819   0.982581   2.685059   0.000000
 Stoichiometry    HO2S(2)
 Framework group  C1[X(HO2S)]
 Deg. of freedom     6
 Full point group                 C1      NOp   1
 Largest Abelian subgroup         C1      NOp   1
 Largest concise Abelian subgroup C1      NOp   1
                         Standard orientation:                         
 ---------------------------------------------------------------------
 Center     Atomic      Atomic             Coordinates (Angstroms)
 Number     Number       Type             X           Y           Z
 ---------------------------------------------------------------------
      1         16           0       -0.164115   -0.473958    0.014844
      2          8           0        1.304648    0.228569   -0.041918
      3          8           0       -1.157767    0.574030   -0.016031
      4          1           0        1.450794    1.162528    0.226089
 ---------------------------------------------------------------------
 Rotational constants (GHZ):     34.5197883      9.7604602      7.6279993
 Standard basis: 6-311+G(3df) (5D, 7F)
 There are   128 symmetry adapted basis functions of A   symmetry.
 Integral buffers will be    131072 words long.
 Raffenetti 2 integral format.
 Two-electron integral symmetry is turned on.
   128 basis functions,   193 primitive gaussians,   146 cartesian basis functions
    17 alpha electrons       16 beta electrons
       nuclear repulsion energy       111.6408337509 Hartrees.
 NAtoms=    4 NActive=    4 NUniq=    4 SFac= 1.00D+00 NAtFMM=   60 NAOKFM=F Big=F
 Nuclear repulsion after empirical dispersion term =      111.6405508905 Hartrees.
 One-electron integrals computed using PRISM.
 NBasis=   128 RedAO= T  NBF=   128
 NBsUse=   128 1.00D-06 NBFU=   128
 Harris functional with IExCor= 4639 diagonalized for initial guess.
 ExpMin= 4.05D-02 ExpMax= 9.34D+04 ExpMxC= 3.17D+03 IAcc=2 IRadAn=         4 AccDes= 0.00D+00
 HarFok:  IExCor= 4639 AccDes= 0.00D+00 IRadAn=         4 IDoV= 1
 ScaDFX=  1.000000  1.000000  1.000000  1.000000
 FoFCou: FMM=F IPFlag=           0 FMFlag=      100000 FMFlg1=           0
         NFxFlg=           0 DoJE=T BraDBF=F KetDBF=T FulRan=T
         Omega=  0.000000  0.000000  1.000000  0.000000  0.000000 ICntrl=     500 IOpCl=  0
         NMat0=    1 NMatS0=    1 NMatT0=    0 NMatD0=    1 NMtDS0=    0 NMtDT0=    0
         I1Cent=           4 NGrid=           0.
 Petite list used in FoFCou.
 Initial guess orbital symmetries:
 Alpha Orbitals:
       Occupied  (A) (A) (A) (A) (A) (A) (A) (A) (A) (A) (A) (A)
                 (A) (A) (A) (A) (A)
       Virtual   (A) (A) (A) (A) (A) (A) (A) (A) (A) (A) (A) (A)
                 (A) (A) (A) (A) (A) (A) (A) (A) (A) (A) (A) (A)
                 (A) (A) (A) (A) (A) (A) (A) (A) (A) (A) (A) (A)
                 (A) (A) (A) (A) (A) (A) (A) (A) (A) (A) (A) (A)
                 (A) (A) (A) (A) (A) (A) (A) (A) (A) (A) (A) (A)
                 (A) (A) (A) (A) (A) (A) (A) (A) (A) (A) (A) (A)
                 (A) (A) (A) (A) (A) (A) (A) (A) (A) (A) (A) (A)
                 (A) (A) (A) (A) (A) (A) (A) (A) (A) (A) (A) (A)
                 (A) (A) (A) (A) (A) (A) (A) (A) (A) (A) (A) (A)
                 (A) (A) (A)
 Beta  Orbitals:
       Occupied  (A) (A) (A) (A) (A) (A) (A) (A) (A) (A) (A) (A)
                 (A) (A) (A) (A)
       Virtual   (A) (A) (A) (A) (A) (A) (A) (A) (A) (A) (A) (A)
                 (A) (A) (A) (A) (A) (A) (A) (A) (A) (A) (A) (A)
                 (A) (A) (A) (A) (A) (A) (A) (A) (A) (A) (A) (A)
                 (A) (A) (A) (A) (A) (A) (A) (A) (A) (A) (A) (A)
                 (A) (A) (A) (A) (A) (A) (A) (A) (A) (A) (A) (A)
                 (A) (A) (A) (A) (A) (A) (A) (A) (A) (A) (A) (A)
                 (A) (A) (A) (A) (A) (A) (A) (A) (A) (A) (A) (A)
                 (A) (A) (A) (A) (A) (A) (A) (A) (A) (A) (A) (A)
                 (A) (A) (A) (A) (A) (A) (A) (A) (A) (A) (A) (A)
                 (A) (A) (A) (A)
 The electronic state of the initial guess is 2-A.
 Initial guess <Sx>= 0.0000 <Sy>= 0.0000 <Sz>= 0.5000 <S**2>= 0.7500 S= 0.5000
 Requested convergence on RMS density matrix=1.00D-08 within 128 cycles.
 Requested convergence on MAX density matrix=1.00D-06.
 Requested convergence on             energy=1.00D-06.
 No special actions if energy rises.
 FoFJK:  IHMeth= 1 ICntrl=     0 DoSepK=T KAlg= 1 I1Cent= 0 FoldK=F
 FoFJK:  IHMeth= 1 ICntrl=     0 DoSepK=T KAlg= 1 I1Cent= 0 FoldK=F
 FoFJK:  IHMeth= 1 ICntrl=     0 DoSepK=T KAlg= 1 I1Cent= 0 FoldK=F
 FoFJK:  IHMeth= 1 ICntrl=     0 DoSepK=T KAlg= 1 I1Cent= 0 FoldK=F
 FoFJK:  IHMeth= 1 ICntrl=     0 DoSepK=T KAlg= 1 I1Cent= 0 FoldK=F
 FoFJK:  IHMeth= 1 ICntrl=     0 DoSepK=T KAlg= 1 I1Cent= 0 FoldK=F
 FoFJK:  IHMeth= 1 ICntrl=     0 DoSepK=T KAlg= 1 I1Cent= 0 FoldK=F
 FoFJK:  IHMeth= 1 ICntrl=     0 DoSepK=T KAlg= 1 I1Cent= 0 FoldK=F
 FoFJK:  IHMeth= 1 ICntrl=     0 DoSepK=T KAlg= 1 I1Cent= 0 FoldK=F
 FoFJK:  IHMeth= 1 ICntrl=     0 DoSepK=T KAlg= 1 I1Cent= 0 FoldK=F
 FoFJK:  IHMeth= 1 ICntrl=     0 DoSepK=T KAlg= 1 I1Cent= 0 FoldK=F
 FoFJK:  IHMeth= 1 ICntrl=     0 DoSepK=T KAlg= 1 I1Cent= 0 FoldK=F
 FoFJK:  IHMeth= 1 ICntrl=     0 DoSepK=T KAlg= 1 I1Cent= 0 FoldK=F
 FoFJK:  IHMeth= 1 ICntrl=     0 DoSepK=T KAlg= 1 I1Cent= 0 FoldK=F
 FoFJK:  IHMeth= 1 ICntrl=     0 DoSepK=T KAlg= 1 I1Cent= 0 FoldK=F
 SCF Done:  E(UwB97XD) =  -549.217199888     A.U. after   15 cycles
             Convg  =    0.6397D-08             -V/T =  2.0017
 <Sx>= 0.0000 <Sy>= 0.0000 <Sz>= 0.5000 <S**2>= 0.7553 S= 0.5027
 <L.S>= 0.000000000000E+00
 Annihilation of the first spin contaminant:
 S**2 before annihilation     0.7553,   after     0.7500

 **********************************************************************

            Population analysis using the SCF density.

 **********************************************************************

 Orbital symmetries:
 Alpha Orbitals:
       Occupied  (A) (A) (A) (A) (A) (A) (A) (A) (A) (A) (A) (A)
                 (A) (A) (A) (A) (A)
       Virtual   (A) (A) (A) (A) (A) (A) (A) (A) (A) (A) (A) (A)
                 (A) (A) (A) (A) (A) (A) (A) (A) (A) (A) (A) (A)
                 (A) (A) (A) (A) (A) (A) (A) (A) (A) (A) (A) (A)
                 (A) (A) (A) (A) (A) (A) (A) (A) (A) (A) (A) (A)
                 (A) (A) (A) (A) (A) (A) (A) (A) (A) (A) (A) (A)
                 (A) (A) (A) (A) (A) (A) (A) (A) (A) (A) (A) (A)
                 (A) (A) (A) (A) (A) (A) (A) (A) (A) (A) (A) (A)
                 (A) (A) (A) (A) (A) (A) (A) (A) (A) (A) (A) (A)
                 (A) (A) (A) (A) (A) (A) (A) (A) (A) (A) (A) (A)
                 (A) (A) (A)
 Beta  Orbitals:
       Occupied  (A) (A) (A) (A) (A) (A) (A) (A) (A) (A) (A) (A)
                 (A) (A) (A) (A)
       Virtual   (A) (A) (A) (A) (A) (A) (A) (A) (A) (A) (A) (A)
                 (A) (A) (A) (A) (A) (A) (A) (A) (A) (A) (A) (A)
                 (A) (A) (A) (A) (A) (A) (A) (A) (A) (A) (A) (A)
                 (A) (A) (A) (A) (A) (A) (A) (A) (A) (A) (A) (A)
                 (A) (A) (A) (A) (A) (A) (A) (A) (A) (A) (A) (A)
                 (A) (A) (A) (A) (A) (A) (A) (A) (A) (A) (A) (A)
                 (A) (A) (A) (A) (A) (A) (A) (A) (A) (A) (A) (A)
                 (A) (A) (A) (A) (A) (A) (A) (A) (A) (A) (A) (A)
                 (A) (A) (A) (A) (A) (A) (A) (A) (A) (A) (A) (A)
                 (A) (A) (A) (A)
 The electronic state is 2-A.
 Alpha  occ. eigenvalues --  -89.14879 -19.30906 -19.27949  -8.17599  -6.12556
 Alpha  occ. eigenvalues --   -6.12284  -6.11927  -1.21886  -1.14443  -0.80330
 Alpha  occ. eigenvalues --   -0.63071  -0.56798  -0.56122  -0.49734  -0.46696
 Alpha  occ. eigenvalues --   -0.42330  -0.30523
 Alpha virt. eigenvalues --    0.04479   0.06803   0.07840   0.09458   0.11965
 Alpha virt. eigenvalues --    0.13616   0.18371   0.23050   0.24609   0.25665
 Alpha virt. eigenvalues --    0.26790   0.28692   0.29956   0.32799   0.33282
 Alpha virt. eigenvalues --    0.35272   0.36614   0.38373   0.39654   0.40857
 Alpha virt. eigenvalues --    0.41700   0.50834   0.55642   0.69042   0.78913
 Alpha virt. eigenvalues --    0.80910   0.86161   0.88782   0.93784   0.96235
 Alpha virt. eigenvalues --    0.96354   0.97912   0.99339   1.01640   1.05216
 Alpha virt. eigenvalues --    1.09053   1.10327   1.14433   1.16854   1.18436
 Alpha virt. eigenvalues --    1.22001   1.28319   1.34456   1.37849   1.41107
 Alpha virt. eigenvalues --    1.45690   1.66883   1.68508   1.75359   1.82312
 Alpha virt. eigenvalues --    1.93652   2.02160   2.09032   2.09192   2.15106
 Alpha virt. eigenvalues --    2.21352   2.30997   2.36890   2.42287   3.38456
 Alpha virt. eigenvalues --    3.42478   3.45316   3.47886   3.50172   3.55590
 Alpha virt. eigenvalues --    3.57032   3.64906   3.70846   3.72926   4.53487
 Alpha virt. eigenvalues --    4.58279   4.62929   4.70906   4.91885   4.99886
 Alpha virt. eigenvalues --    5.04044   5.04638   5.05422   5.06586   5.09532
 Alpha virt. eigenvalues --    5.10349   5.11397   5.16712   5.24373   5.25062
 Alpha virt. eigenvalues --    5.43442   5.51143   5.53734   5.59876   5.64835
 Alpha virt. eigenvalues --    5.71595   5.87149   5.99752   6.59312   8.80341
 Alpha virt. eigenvalues --   14.33308  14.35814  14.37666  14.39462  14.41545
 Alpha virt. eigenvalues --   14.46480  14.48194  14.50700  14.62279  14.71590
 Alpha virt. eigenvalues --   17.36378  17.61815  17.93818  50.03423  50.12115
 Alpha virt. eigenvalues --  189.86211
  Beta  occ. eigenvalues --  -89.14496 -19.30665 -19.27074  -8.17258  -6.12330
  Beta  occ. eigenvalues --   -6.11719  -6.11054  -1.20578  -1.13177  -0.78158
  Beta  occ. eigenvalues --   -0.61616  -0.55593  -0.52734  -0.47904  -0.43186
  Beta  occ. eigenvalues --   -0.41205
  Beta virt. eigenvalues --   -0.03484   0.05003   0.07134   0.08267   0.10083
  Beta virt. eigenvalues --    0.12651   0.14592   0.18702   0.23300   0.24930
  Beta virt. eigenvalues --    0.25855   0.27438   0.28988   0.30314   0.32959
  Beta virt. eigenvalues --    0.34389   0.35517   0.36985   0.39085   0.41083
  Beta virt. eigenvalues --    0.41613   0.42161   0.51426   0.55852   0.69556
  Beta virt. eigenvalues --    0.79422   0.81295   0.86553   0.89659   0.94260
  Beta virt. eigenvalues --    0.96757   0.97294   0.98772   0.99981   1.02767
  Beta virt. eigenvalues --    1.06060   1.09933   1.12353   1.14757   1.17464
  Beta virt. eigenvalues --    1.18965   1.23291   1.28807   1.35937   1.38656
  Beta virt. eigenvalues --    1.41440   1.46029   1.69844   1.70547   1.76971
  Beta virt. eigenvalues --    1.83860   1.94513   2.03665   2.09724   2.11521
  Beta virt. eigenvalues --    2.15454   2.21916   2.31417   2.37593   2.42953
  Beta virt. eigenvalues --    3.39412   3.43990   3.47178   3.49288   3.51479
  Beta virt. eigenvalues --    3.56581   3.59055   3.65710   3.71389   3.73832
  Beta virt. eigenvalues --    4.54021   4.58413   4.63818   4.71424   4.92472
  Beta virt. eigenvalues --    5.00442   5.05074   5.05316   5.06111   5.07726
  Beta virt. eigenvalues --    5.11844   5.12998   5.13917   5.17537   5.25432
  Beta virt. eigenvalues --    5.26277   5.44084   5.51646   5.54503   5.60525
  Beta virt. eigenvalues --    5.65095   5.72713   5.88868   6.00267   6.59718
  Beta virt. eigenvalues --    8.80703  14.34659  14.38049  14.40823  14.41337
  Beta virt. eigenvalues --   14.43942  14.48864  14.50025  14.51626  14.62991
  Beta virt. eigenvalues --   14.73578  17.37764  17.62109  17.94142  50.03644
  Beta virt. eigenvalues --   50.12893 189.86514
          Condensed to atoms (all electrons):
              1          2          3          4
     1  S   15.337982   0.016073   0.136909   0.008298
     2  O    0.016073   8.396083   0.002376   0.207777
     3  O    0.136909   0.002376   8.232023  -0.002493
     4  H    0.008298   0.207777  -0.002493   0.296032
 Mulliken atomic charges:
              1
     1  S    0.500738
     2  O   -0.622309
     3  O   -0.368815
     4  H    0.490386
 Sum of Mulliken atomic charges =   0.00000
 Mulliken charges with hydrogens summed into heavy atoms:
              1
     1  S    0.500738
     2  O   -0.131923
     3  O   -0.368815
 Sum of Mulliken charges with hydrogens summed into heavy atoms =   0.00000
          Atomic-Atomic Spin Densities.
              1          2          3          4
     1  S    0.946675  -0.100340  -0.202028  -0.000472
     2  O   -0.100340   0.145984   0.019579  -0.003408
     3  O   -0.202028   0.019579   0.477286  -0.000756
     4  H   -0.000472  -0.003408  -0.000756   0.004906
 Mulliken atomic spin densities:
              1
     1  S    0.643834
     2  O    0.061815
     3  O    0.294081
     4  H    0.000270
 Sum of Mulliken atomic spin densities =   1.00000
 Electronic spatial extent (au):  <R**2>=            177.0366
 Charge=              0.0000 electrons
 Dipole moment (field-independent basis, Debye):
    X=              1.4370    Y=              0.1236    Z=              0.5066  Tot=              1.5287
 Quadrupole moment (field-independent basis, Debye-Ang):
   XX=            -25.5707   YY=            -21.0646   ZZ=            -23.6301
   XY=              4.2184   XZ=              0.7902   YZ=              0.7425
 Traceless Quadrupole moment (field-independent basis, Debye-Ang):
   XX=             -2.1489   YY=              2.3572   ZZ=             -0.2083
   XY=              4.2184   XZ=              0.7902   YZ=              0.7425
 Octapole moment (field-independent basis, Debye-Ang**2):
  XXX=              3.2830  YYY=              5.1416  ZZZ=              0.0071  XYY=              5.2805
  XXY=              2.9587  XXZ=              1.1684  XZZ=              0.0455  YZZ=              1.2121
  YYZ=              0.8389  XYZ=              1.0201
 Hexadecapole moment (field-independent basis, Debye-Ang**3):
 XXXX=           -136.9637 YYYY=            -52.0847 ZZZZ=            -24.9097 XXXY=             10.3642
 XXXZ=              1.9501 YYYX=              7.3101 YYYZ=              1.2241 ZZZX=              0.4402
 ZZZY=              0.5182 XXYY=            -24.6985 XXZZ=            -26.8477 YYZZ=            -13.9795
 XXYZ=              1.6324 YYXZ=              1.2647 ZZXY=              0.5060
 N-N= 1.116405508905D+02 E-N=-2.282675328714D+03  KE= 8.210291252763D+02
                          Isotropic Fermi Contact Couplings
        Atom                 a.u.       MegaHertz       Gauss      10(-4) cm-1
     1  S(33)              0.09943      34.15049      12.18574      11.39138
     2  O(17)              0.02181     -13.22041      -4.71737      -4.40985
     3  O(17)              0.05191     -31.46616     -11.22791     -10.49598
     4  H(1)               0.00028       1.26865       0.45269       0.42318
 --------------------------------------------------------
       Center         ----  Spin Dipole Couplings  ----
                      3XX-RR        3YY-RR        3ZZ-RR
 --------------------------------------------------------
     1   Atom       -1.499083     -1.609177      3.108261
     2   Atom       -0.234605     -0.203890      0.438496
     3   Atom       -0.765530     -0.769559      1.535089
     4   Atom       -0.008535      0.018106     -0.009570
 --------------------------------------------------------
                        XY            XZ            YZ
 --------------------------------------------------------
     1   Atom       -0.007462     -0.100529      0.106698
     2   Atom        0.013165     -0.000927     -0.102335
     3   Atom        0.004298      0.046546      0.018008
     4   Atom        0.011911      0.001982      0.003842
 --------------------------------------------------------


 ---------------------------------------------------------------------------------
              Anisotropic Spin Dipole Couplings in Principal Axis System
 ---------------------------------------------------------------------------------

       Atom             a.u.   MegaHertz   Gauss  10(-4) cm-1        Axes

              Baa    -1.6118   -66.084   -23.580   -22.043  0.0469  0.9987 -0.0216
     1 S(33)  Bbb    -1.5010   -61.541   -21.959   -20.528  0.9987 -0.0464  0.0229
              Bcc     3.1129   127.625    45.540    42.571 -0.0218  0.0226  0.9995
 
              Baa    -0.2421    17.515     6.250     5.842  0.8657 -0.4951 -0.0733
     2 O(17)  Bbb    -0.2124    15.366     5.483     5.126  0.5005  0.8551  0.1352
              Bcc     0.4544   -32.881   -11.733   -10.968 -0.0043 -0.1537  0.9881
 
              Baa    -0.7723    55.886    19.941    18.642 -0.5569  0.8306  0.0048
     3 O(17)  Bbb    -0.7638    55.271    19.722    18.436  0.8303  0.5569 -0.0212
              Bcc     1.5362  -111.156   -39.663   -37.078  0.0202  0.0078  0.9998
 
              Baa    -0.0132    -7.021    -2.505    -2.342  0.9294 -0.3351 -0.1546
     4 H(1)   Bbb    -0.0101    -5.367    -1.915    -1.790  0.0996 -0.1757  0.9794
              Bcc     0.0232    12.388     4.420     4.132  0.3553  0.9257  0.1300
 

 ---------------------------------------------------------------------------------

 1\1\ CPUSERV-QCEXNOD15\SP\UwB97XD\6-311+G(3df)\H1O2S1(2)\VPEREZ\20-Aug
 -2025\0\\#sp wB97XD/6-311+G(3df)\\Optimizacion del hoso\\0,2\S,0,-0.14
 6843,-0.478008,0.014308\O,0,1.300132,0.268471,-0.04104\O,0,-1.171636,0
 .539438,-0.020037\H,0,1.417521,1.206845,0.225681\\Version=EM64L-G09Rev
 C.01\State=2-A\HF=-549.2171999\S2=0.755349\S2-1=0.\S2A=0.75002\RMSD=6.
 397e-09\Dipole=0.5632896,0.0660149,0.200219\Quadrupole=-1.7860069,1.94
 0651,-0.1546441,3.0292731,0.562812,0.5716415\PG=C01 [X(H1O2S1)]\\@


 PATIENCE IS THE ABILITY TO IDLE YOUR MOTOR WHEN
 YOU FEEL LIKE STRIPPING YOUR GEARS.
 Job cpu time:  0 days  0 hours  5 minutes 38.1 seconds.
 File lengths (MBytes):  RWF=     21 Int=      0 D2E=      0 Chk=      2 Scr=      1
 Normal termination of Gaussian 09 at Wed Aug 20 22:59:59 2025.
