 Entering Gaussian System, Link 0=g09
 Initial command:
 /soft/g09.c01/g09/l1.exe /scr/macias/389576.qcexmaster_vib2_-0.20/Gau-2962.inp -scrdir=/scr/macias/389576.qcexmaster_vib2_-0.20/
 Entering Link 1 = /soft/g09.c01/g09/l1.exe PID=      2967.
  
 Copyright (c) 1988,1990,1992,1993,1995,1998,2003,2009,2011,
            Gaussian, Inc.  All Rights Reserved.
  
 This is part of the Gaussian(R) 09 program.  It is based on
 the Gaussian(R) 03 system (copyright 2003, Gaussian, Inc.),
 the Gaussian(R) 98 system (copyright 1998, Gaussian, Inc.),
 the Gaussian(R) 94 system (copyright 1995, Gaussian, Inc.),
 the Gaussian 92(TM) system (copyright 1992, Gaussian, Inc.),
 the Gaussian 90(TM) system (copyright 1990, Gaussian, Inc.),
 the Gaussian 88(TM) system (copyright 1988, Gaussian, Inc.),
 the Gaussian 86(TM) system (copyright 1986, Carnegie Mellon
 University), and the Gaussian 82(TM) system (copyright 1983,
 Carnegie Mellon University). Gaussian is a federally registered
 trademark of Gaussian, Inc.
  
 This software contains proprietary and confidential information,
 including trade secrets, belonging to Gaussian, Inc.
  
 This software is provided under written license and may be
 used, copied, transmitted, or stored only in accord with that
 written license.
  
 The following legend is applicable only to US Government
 contracts under FAR:
  
                    RESTRICTED RIGHTS LEGEND
  
 Use, reproduction and disclosure by the US Government is
 subject to restrictions as set forth in subparagraphs (a)
 and (c) of the Commercial Computer Software - Restricted
 Rights clause in FAR 52.227-19.
  
 Gaussian, Inc.
 340 Quinnipiac St., Bldg. 40, Wallingford CT 06492
  
  
 ---------------------------------------------------------------
 Warning -- This program may not be used in any manner that
 competes with the business of Gaussian, Inc. or will provide
 assistance to any competitor of Gaussian, Inc.  The licensee
 of this program is prohibited from giving any competitor of
 Gaussian, Inc. access to this program.  By using this program,
 the user acknowledges that Gaussian, Inc. is engaged in the
 business of creating and licensing software in the field of
 computational chemistry and represents and warrants to the
 licensee that it is not a competitor of Gaussian, Inc. and that
 it will not use this program in any manner prohibited above.
 ---------------------------------------------------------------
  

 Cite this work as:
 Gaussian 09, Revision C.01,
 M. J. Frisch, G. W. Trucks, H. B. Schlegel, G. E. Scuseria, 
 M. A. Robb, J. R. Cheeseman, G. Scalmani, V. Barone, B. Mennucci, 
 G. A. Petersson, H. Nakatsuji, M. Caricato, X. Li, H. P. Hratchian, 
 A. F. Izmaylov, J. Bloino, G. Zheng, J. L. Sonnenberg, M. Hada, 
 M. Ehara, K. Toyota, R. Fukuda, J. Hasegawa, M. Ishida, T. Nakajima, 
 Y. Honda, O. Kitao, H. Nakai, T. Vreven, J. A. Montgomery, Jr., 
 J. E. Peralta, F. Ogliaro, M. Bearpark, J. J. Heyd, E. Brothers, 
 K. N. Kudin, V. N. Staroverov, T. Keith, R. Kobayashi, J. Normand, 
 K. Raghavachari, A. Rendell, J. C. Burant, S. S. Iyengar, J. Tomasi, 
 M. Cossi, N. Rega, J. M. Millam, M. Klene, J. E. Knox, J. B. Cross, 
 V. Bakken, C. Adamo, J. Jaramillo, R. Gomperts, R. E. Stratmann, 
 O. Yazyev, A. J. Austin, R. Cammi, C. Pomelli, J. W. Ochterski, 
 R. L. Martin, K. Morokuma, V. G. Zakrzewski, G. A. Voth, 
 P. Salvador, J. J. Dannenberg, S. Dapprich, A. D. Daniels, 
 O. Farkas, J. B. Foresman, J. V. Ortiz, J. Cioslowski, 
 and D. J. Fox, Gaussian, Inc., Wallingford CT, 2010.
 
  
 -----  Compilado por  -----------------------------------------
  
  Servicio de Calculo | Servicio de Informatica U. de Valencia
     calculo@uv.es    |  E-46100 Burjassot (Valencia) SPAIN
  
 ---------------------------------------------------------------
  
 ******************************************
 Gaussian 09:  EM64L-G09RevC.01 23-Sep-2011
                21-Aug-2025 
 ******************************************
 %chk=opt_freq.chk
 %nproc=6
 Will use up to    6 processors via shared memory.
 %mem=20GB
 Default route:  CacheSize=131072
 -----------------------
 #sp wB97XD/6-311+G(3df)
 -----------------------
 1/4=131072,38=1/1;
 2/4=131072,12=2,17=6,18=5,40=1/2;
 3/4=131072,5=4,6=6,7=16,11=2,16=1,25=1,30=1,74=-58/1,2,3;
 4/4=131072/1;
 5/4=131072,5=2,38=5/2;
 6/4=131072,7=2,8=2,9=2,10=2,28=1/1;
 99/4=131072,5=1,9=1/99;
 ---------------------
 Optimizacion del hoso
 ---------------------
 Charge =  0 Multiplicity = 2
 Symbolic Z-Matrix:
 S                    -0.14084  -0.51001   0.02231 
 O                     1.25413   0.29447  -0.05504 
 O                    -1.11764   0.58144  -0.02604 
 H                     1.08552   1.16485   0.35168 
 
                          Input orientation:                          
 ---------------------------------------------------------------------
 Center     Atomic      Atomic             Coordinates (Angstroms)
 Number     Number       Type             X           Y           Z
 ---------------------------------------------------------------------
      1         16           0       -0.140843   -0.510008    0.022308
      2          8           0        1.254132    0.294471   -0.055040
      3          8           0       -1.117636    0.581438   -0.026037
      4          1           0        1.085521    1.164845    0.351681
 ---------------------------------------------------------------------
                    Distance matrix (angstroms):
                    1          2          3          4
     1  S    0.000000
     2  O    1.612180   0.000000
     3  O    1.465509   2.389241   0.000000
     4  H    2.101806   0.975399   2.310181   0.000000
 Stoichiometry    HO2S(2)
 Framework group  C1[X(HO2S)]
 Deg. of freedom     6
 Full point group                 C1      NOp   1
 Largest Abelian subgroup         C1      NOp   1
 Largest concise Abelian subgroup C1      NOp   1
                         Standard orientation:                         
 ---------------------------------------------------------------------
 Center     Atomic      Atomic             Coordinates (Angstroms)
 Number     Number       Type             X           Y           Z
 ---------------------------------------------------------------------
      1         16           0       -0.144230   -0.508843    0.019207
      2          8           0        1.259617    0.280188   -0.056741
      3          8           0       -1.108778    0.593584   -0.025720
      4          1           0        1.100955    1.151307    0.352380
 ---------------------------------------------------------------------
 Rotational constants (GHZ):     30.3961988     10.7185232      7.9699859
 Standard basis: 6-311+G(3df) (5D, 7F)
 There are   128 symmetry adapted basis functions of A   symmetry.
 Integral buffers will be    131072 words long.
 Raffenetti 2 integral format.
 Two-electron integral symmetry is turned on.
   128 basis functions,   193 primitive gaussians,   146 cartesian basis functions
    17 alpha electrons       16 beta electrons
       nuclear repulsion energy       112.6095607242 Hartrees.
 NAtoms=    4 NActive=    4 NUniq=    4 SFac= 1.00D+00 NAtFMM=   60 NAOKFM=F Big=F
 Nuclear repulsion after empirical dispersion term =      112.6093664053 Hartrees.
 One-electron integrals computed using PRISM.
 NBasis=   128 RedAO= T  NBF=   128
 NBsUse=   128 1.00D-06 NBFU=   128
 Harris functional with IExCor= 4639 diagonalized for initial guess.
 ExpMin= 4.05D-02 ExpMax= 9.34D+04 ExpMxC= 3.17D+03 IAcc=2 IRadAn=         4 AccDes= 0.00D+00
 HarFok:  IExCor= 4639 AccDes= 0.00D+00 IRadAn=         4 IDoV= 1
 ScaDFX=  1.000000  1.000000  1.000000  1.000000
 FoFCou: FMM=F IPFlag=           0 FMFlag=      100000 FMFlg1=           0
         NFxFlg=           0 DoJE=T BraDBF=F KetDBF=T FulRan=T
         Omega=  0.000000  0.000000  1.000000  0.000000  0.000000 ICntrl=     500 IOpCl=  0
         NMat0=    1 NMatS0=    1 NMatT0=    0 NMatD0=    1 NMtDS0=    0 NMtDT0=    0
         I1Cent=           4 NGrid=           0.
 Petite list used in FoFCou.
 Initial guess orbital symmetries:
 Alpha Orbitals:
       Occupied  (A) (A) (A) (A) (A) (A) (A) (A) (A) (A) (A) (A)
                 (A) (A) (A) (A) (A)
       Virtual   (A) (A) (A) (A) (A) (A) (A) (A) (A) (A) (A) (A)
                 (A) (A) (A) (A) (A) (A) (A) (A) (A) (A) (A) (A)
                 (A) (A) (A) (A) (A) (A) (A) (A) (A) (A) (A) (A)
                 (A) (A) (A) (A) (A) (A) (A) (A) (A) (A) (A) (A)
                 (A) (A) (A) (A) (A) (A) (A) (A) (A) (A) (A) (A)
                 (A) (A) (A) (A) (A) (A) (A) (A) (A) (A) (A) (A)
                 (A) (A) (A) (A) (A) (A) (A) (A) (A) (A) (A) (A)
                 (A) (A) (A) (A) (A) (A) (A) (A) (A) (A) (A) (A)
                 (A) (A) (A) (A) (A) (A) (A) (A) (A) (A) (A) (A)
                 (A) (A) (A)
 Beta  Orbitals:
       Occupied  (A) (A) (A) (A) (A) (A) (A) (A) (A) (A) (A) (A)
                 (A) (A) (A) (A)
       Virtual   (A) (A) (A) (A) (A) (A) (A) (A) (A) (A) (A) (A)
                 (A) (A) (A) (A) (A) (A) (A) (A) (A) (A) (A) (A)
                 (A) (A) (A) (A) (A) (A) (A) (A) (A) (A) (A) (A)
                 (A) (A) (A) (A) (A) (A) (A) (A) (A) (A) (A) (A)
                 (A) (A) (A) (A) (A) (A) (A) (A) (A) (A) (A) (A)
                 (A) (A) (A) (A) (A) (A) (A) (A) (A) (A) (A) (A)
                 (A) (A) (A) (A) (A) (A) (A) (A) (A) (A) (A) (A)
                 (A) (A) (A) (A) (A) (A) (A) (A) (A) (A) (A) (A)
                 (A) (A) (A) (A) (A) (A) (A) (A) (A) (A) (A) (A)
                 (A) (A) (A) (A)
 The electronic state of the initial guess is 2-A.
 Initial guess <Sx>= 0.0000 <Sy>= 0.0000 <Sz>= 0.5000 <S**2>= 0.7500 S= 0.5000
 Requested convergence on RMS density matrix=1.00D-08 within 128 cycles.
 Requested convergence on MAX density matrix=1.00D-06.
 Requested convergence on             energy=1.00D-06.
 No special actions if energy rises.
 FoFJK:  IHMeth= 1 ICntrl=     0 DoSepK=T KAlg= 1 I1Cent= 0 FoldK=F
 FoFJK:  IHMeth= 1 ICntrl=     0 DoSepK=T KAlg= 1 I1Cent= 0 FoldK=F
 FoFJK:  IHMeth= 1 ICntrl=     0 DoSepK=T KAlg= 1 I1Cent= 0 FoldK=F
 FoFJK:  IHMeth= 1 ICntrl=     0 DoSepK=T KAlg= 1 I1Cent= 0 FoldK=F
 FoFJK:  IHMeth= 1 ICntrl=     0 DoSepK=T KAlg= 1 I1Cent= 0 FoldK=F
 FoFJK:  IHMeth= 1 ICntrl=     0 DoSepK=T KAlg= 1 I1Cent= 0 FoldK=F
 FoFJK:  IHMeth= 1 ICntrl=     0 DoSepK=T KAlg= 1 I1Cent= 0 FoldK=F
 FoFJK:  IHMeth= 1 ICntrl=     0 DoSepK=T KAlg= 1 I1Cent= 0 FoldK=F
 FoFJK:  IHMeth= 1 ICntrl=     0 DoSepK=T KAlg= 1 I1Cent= 0 FoldK=F
 FoFJK:  IHMeth= 1 ICntrl=     0 DoSepK=T KAlg= 1 I1Cent= 0 FoldK=F
 FoFJK:  IHMeth= 1 ICntrl=     0 DoSepK=T KAlg= 1 I1Cent= 0 FoldK=F
 FoFJK:  IHMeth= 1 ICntrl=     0 DoSepK=T KAlg= 1 I1Cent= 0 FoldK=F
 FoFJK:  IHMeth= 1 ICntrl=     0 DoSepK=T KAlg= 1 I1Cent= 0 FoldK=F
 FoFJK:  IHMeth= 1 ICntrl=     0 DoSepK=T KAlg= 1 I1Cent= 0 FoldK=F
 FoFJK:  IHMeth= 1 ICntrl=     0 DoSepK=T KAlg= 1 I1Cent= 0 FoldK=F
 SCF Done:  E(UwB97XD) =  -549.218155295     A.U. after   15 cycles
             Convg  =    0.9694D-08             -V/T =  2.0016
 <Sx>= 0.0000 <Sy>= 0.0000 <Sz>= 0.5000 <S**2>= 0.7554 S= 0.5027
 <L.S>= 0.000000000000E+00
 Annihilation of the first spin contaminant:
 S**2 before annihilation     0.7554,   after     0.7500

 **********************************************************************

            Population analysis using the SCF density.

 **********************************************************************

 Orbital symmetries:
 Alpha Orbitals:
       Occupied  (A) (A) (A) (A) (A) (A) (A) (A) (A) (A) (A) (A)
                 (A) (A) (A) (A) (A)
       Virtual   (A) (A) (A) (A) (A) (A) (A) (A) (A) (A) (A) (A)
                 (A) (A) (A) (A) (A) (A) (A) (A) (A) (A) (A) (A)
                 (A) (A) (A) (A) (A) (A) (A) (A) (A) (A) (A) (A)
                 (A) (A) (A) (A) (A) (A) (A) (A) (A) (A) (A) (A)
                 (A) (A) (A) (A) (A) (A) (A) (A) (A) (A) (A) (A)
                 (A) (A) (A) (A) (A) (A) (A) (A) (A) (A) (A) (A)
                 (A) (A) (A) (A) (A) (A) (A) (A) (A) (A) (A) (A)
                 (A) (A) (A) (A) (A) (A) (A) (A) (A) (A) (A) (A)
                 (A) (A) (A) (A) (A) (A) (A) (A) (A) (A) (A) (A)
                 (A) (A) (A)
 Beta  Orbitals:
       Occupied  (A) (A) (A) (A) (A) (A) (A) (A) (A) (A) (A) (A)
                 (A) (A) (A) (A)
       Virtual   (A) (A) (A) (A) (A) (A) (A) (A) (A) (A) (A) (A)
                 (A) (A) (A) (A) (A) (A) (A) (A) (A) (A) (A) (A)
                 (A) (A) (A) (A) (A) (A) (A) (A) (A) (A) (A) (A)
                 (A) (A) (A) (A) (A) (A) (A) (A) (A) (A) (A) (A)
                 (A) (A) (A) (A) (A) (A) (A) (A) (A) (A) (A) (A)
                 (A) (A) (A) (A) (A) (A) (A) (A) (A) (A) (A) (A)
                 (A) (A) (A) (A) (A) (A) (A) (A) (A) (A) (A) (A)
                 (A) (A) (A) (A) (A) (A) (A) (A) (A) (A) (A) (A)
                 (A) (A) (A) (A) (A) (A) (A) (A) (A) (A) (A) (A)
                 (A) (A) (A) (A)
 The electronic state is 2-A.
 Alpha  occ. eigenvalues --  -89.15123 -19.31500 -19.27965  -8.17899  -6.12827
 Alpha  occ. eigenvalues --   -6.12596  -6.12234  -1.23018  -1.14124  -0.79804
 Alpha  occ. eigenvalues --   -0.63193  -0.57743  -0.56659  -0.50642  -0.46539
 Alpha  occ. eigenvalues --   -0.42047  -0.31356
 Alpha virt. eigenvalues --    0.04481   0.06488   0.07326   0.09298   0.11975
 Alpha virt. eigenvalues --    0.13778   0.19227   0.22475   0.24796   0.25028
 Alpha virt. eigenvalues --    0.26066   0.28034   0.30044   0.32575   0.33070
 Alpha virt. eigenvalues --    0.35315   0.36074   0.38377   0.39353   0.40995
 Alpha virt. eigenvalues --    0.43094   0.48453   0.56659   0.68778   0.76090
 Alpha virt. eigenvalues --    0.81238   0.85648   0.89794   0.93023   0.94750
 Alpha virt. eigenvalues --    0.95339   0.97096   0.99864   1.02419   1.06468
 Alpha virt. eigenvalues --    1.08606   1.10369   1.12721   1.13496   1.18158
 Alpha virt. eigenvalues --    1.23296   1.32147   1.32976   1.37765   1.39424
 Alpha virt. eigenvalues --    1.43685   1.66781   1.68446   1.73827   1.82094
 Alpha virt. eigenvalues --    1.93918   2.02059   2.08157   2.08276   2.15232
 Alpha virt. eigenvalues --    2.20429   2.28523   2.36661   2.45673   3.38287
 Alpha virt. eigenvalues --    3.44234   3.46271   3.47842   3.51935   3.55401
 Alpha virt. eigenvalues --    3.56492   3.61999   3.69756   3.70607   4.53341
 Alpha virt. eigenvalues --    4.56103   4.61210   4.71834   4.90555   4.99056
 Alpha virt. eigenvalues --    5.02335   5.03082   5.03604   5.07222   5.09819
 Alpha virt. eigenvalues --    5.10288   5.11095   5.18257   5.24164   5.26961
 Alpha virt. eigenvalues --    5.41771   5.48290   5.56050   5.58220   5.67596
 Alpha virt. eigenvalues --    5.69275   5.84593   6.00936   6.66643   8.77107
 Alpha virt. eigenvalues --   14.33013  14.37020  14.37628  14.39342  14.42952
 Alpha virt. eigenvalues --   14.45550  14.46584  14.49437  14.62588  14.71393
 Alpha virt. eigenvalues --   17.36125  17.64932  17.87953  50.03307  50.10969
 Alpha virt. eigenvalues --  189.83120
  Beta  occ. eigenvalues --  -89.14742 -19.31289 -19.27077  -8.17558  -6.12601
  Beta  occ. eigenvalues --   -6.12026  -6.11372  -1.21939  -1.12653  -0.77450
  Beta  occ. eigenvalues --   -0.61832  -0.56921  -0.53552  -0.48332  -0.43025
  Beta  occ. eigenvalues --   -0.40951
  Beta virt. eigenvalues --   -0.04297   0.05042   0.06802   0.07781   0.09937
  Beta virt. eigenvalues --    0.12501   0.14912   0.19679   0.22670   0.25092
  Beta virt. eigenvalues --    0.25246   0.26401   0.28477   0.30364   0.32786
  Beta virt. eigenvalues --    0.34168   0.35545   0.36913   0.38844   0.40575
  Beta virt. eigenvalues --    0.41602   0.43664   0.49193   0.56906   0.69293
  Beta virt. eigenvalues --    0.76565   0.81430   0.86023   0.90743   0.93524
  Beta virt. eigenvalues --    0.95574   0.96216   0.97937   1.00756   1.02895
  Beta virt. eigenvalues --    1.07070   1.09709   1.12314   1.13278   1.14105
  Beta virt. eigenvalues --    1.19000   1.24316   1.33059   1.33831   1.38608
  Beta virt. eigenvalues --    1.39745   1.44095   1.69919   1.70349   1.75520
  Beta virt. eigenvalues --    1.83574   1.94740   2.03472   2.08765   2.10571
  Beta virt. eigenvalues --    2.15611   2.21058   2.29108   2.37652   2.46071
  Beta virt. eigenvalues --    3.39112   3.45904   3.48460   3.49365   3.52869
  Beta virt. eigenvalues --    3.56175   3.58452   3.62726   3.70415   3.71534
  Beta virt. eigenvalues --    4.53872   4.56209   4.62084   4.72384   4.91130
  Beta virt. eigenvalues --    4.99559   5.02850   5.03851   5.04562   5.08603
  Beta virt. eigenvalues --    5.12312   5.12807   5.13648   5.18899   5.25500
  Beta virt. eigenvalues --    5.27782   5.42331   5.48810   5.56725   5.59065
  Beta virt. eigenvalues --    5.68372   5.70034   5.86299   6.01350   6.67049
  Beta virt. eigenvalues --    8.77463  14.34172  14.39470  14.40748  14.41457
  Beta virt. eigenvalues --   14.44519  14.46896  14.49636  14.50750  14.63133
  Beta virt. eigenvalues --   14.73370  17.37502  17.65226  17.88266  50.03496
  Beta virt. eigenvalues --   50.11769 189.83421
          Condensed to atoms (all electrons):
              1          2          3          4
     1  S   15.290129   0.026456   0.168961   0.004030
     2  O    0.026456   8.393381  -0.019854   0.211993
     3  O    0.168961  -0.019854   8.243637   0.002082
     4  H    0.004030   0.211993   0.002082   0.285518
 Mulliken atomic charges:
              1
     1  S    0.510424
     2  O   -0.611976
     3  O   -0.394826
     4  H    0.496377
 Sum of Mulliken atomic charges =   0.00000
 Mulliken charges with hydrogens summed into heavy atoms:
              1
     1  S    0.510424
     2  O   -0.115598
     3  O   -0.394826
 Sum of Mulliken charges with hydrogens summed into heavy atoms =   0.00000
          Atomic-Atomic Spin Densities.
              1          2          3          4
     1  S    0.926818  -0.094155  -0.190191  -0.003078
     2  O   -0.094155   0.129784   0.020321  -0.005099
     3  O   -0.190191   0.020321   0.475097   0.000722
     4  H   -0.003078  -0.005099   0.000722   0.011262
 Mulliken atomic spin densities:
              1
     1  S    0.639393
     2  O    0.050851
     3  O    0.305948
     4  H    0.003807
 Sum of Mulliken atomic spin densities =   1.00000
 Electronic spatial extent (au):  <R**2>=            171.4144
 Charge=              0.0000 electrons
 Dipole moment (field-independent basis, Debye):
    X=              1.0935    Y=             -0.2696    Z=              0.7012  Tot=              1.3267
 Quadrupole moment (field-independent basis, Debye-Ang):
   XX=            -26.7287   YY=            -21.2092   ZZ=            -23.3975
   XY=              3.0659   XZ=              0.8232   YZ=              1.1065
 Traceless Quadrupole moment (field-independent basis, Debye-Ang):
   XX=             -2.9502   YY=              2.5692   ZZ=              0.3810
   XY=              3.0659   XZ=              0.8232   YZ=              1.1065
 Octapole moment (field-independent basis, Debye-Ang**2):
  XXX=              0.7189  YYY=              4.8266  ZZZ=              0.0144  XYY=              4.0771
  XXY=              0.2759  XXZ=              0.8415  XZZ=              0.3702  YZZ=              1.3542
  YYZ=              1.2769  XYZ=              1.2196
 Hexadecapole moment (field-independent basis, Debye-Ang**3):
 XXXX=           -131.0093 YYYY=            -56.3861 ZZZZ=            -24.9362 XXXY=              4.7514
 XXXZ=              1.1073 YYYX=              5.3181 YYYZ=              1.7969 ZZZX=              0.4773
 ZZZY=              0.8062 XXYY=            -26.5047 XXZZ=            -24.8346 YYZZ=            -14.4664
 XXYZ=              1.5263 YYXZ=              1.4466 ZZXY=              0.5363
 N-N= 1.126093664053D+02 E-N=-2.285502577110D+03  KE= 8.210921010012D+02
                          Isotropic Fermi Contact Couplings
        Atom                 a.u.       MegaHertz       Gauss      10(-4) cm-1
     1  S(33)              0.09704      33.32898      11.89261      11.11735
     2  O(17)              0.02208     -13.38533      -4.77622      -4.46487
     3  O(17)              0.05178     -31.38861     -11.20024     -10.47011
     4  H(1)               0.00224      10.02604       3.57754       3.34433
 --------------------------------------------------------
       Center         ----  Spin Dipole Couplings  ----
                      3XX-RR        3YY-RR        3ZZ-RR
 --------------------------------------------------------
     1   Atom       -1.491429     -1.590762      3.082191
     2   Atom       -0.206974     -0.165181      0.372154
     3   Atom       -0.772252     -0.778892      1.551143
     4   Atom       -0.005393      0.016589     -0.011196
 --------------------------------------------------------
                        XY            XZ            YZ
 --------------------------------------------------------
     1   Atom       -0.006975     -0.071298      0.192818
     2   Atom       -0.002783      0.035124     -0.132030
     3   Atom        0.008743      0.093809      0.032272
     4   Atom        0.003639      0.001486      0.006548
 --------------------------------------------------------


 ---------------------------------------------------------------------------------
              Anisotropic Spin Dipole Couplings in Principal Axis System
 ---------------------------------------------------------------------------------

       Atom             a.u.   MegaHertz   Gauss  10(-4) cm-1        Axes

              Baa    -1.5989   -65.552   -23.390   -21.866  0.0379  0.9985 -0.0406
     1 S(33)  Bbb    -1.4924   -61.187   -21.833   -20.410  0.9992 -0.0372  0.0171
              Bcc     3.0912   126.738    45.223    42.275 -0.0156  0.0412  0.9990
 
              Baa    -0.2108    15.253     5.443     5.088  0.9421 -0.3102 -0.1270
     2 O(17)  Bbb    -0.1940    14.040     5.010     4.683  0.3304  0.9235  0.1949
              Bcc     0.4048   -29.293   -10.452    -9.771  0.0569 -0.2256  0.9726
 
              Baa    -0.7853    56.824    20.276    18.955 -0.6254  0.7801  0.0143
     3 O(17)  Bbb    -0.7701    55.722    19.883    18.587  0.7792  0.6254 -0.0402
              Bcc     1.5554  -112.546   -40.159   -37.541  0.0403  0.0140  0.9991
 
              Baa    -0.0127    -6.789    -2.423    -2.265 -0.0953 -0.2057  0.9740
     4 H(1)   Bbb    -0.0060    -3.177    -1.134    -1.060  0.9827 -0.1758  0.0591
              Bcc     0.0187     9.966     3.556     3.324  0.1590  0.9627  0.2189
 

 ---------------------------------------------------------------------------------

 1\1\ CPUSERV-QCEXNOD09\SP\UwB97XD\6-311+G(3df)\H1O2S1(2)\ROOT\21-Aug-2
 025\0\\#sp wB97XD/6-311+G(3df)\\Optimizacion del hoso\\0,2\S,0,-0.1408
 43,-0.510008,0.022308\O,0,1.254132,0.294471,-0.05504\O,0,-1.117636,0.5
 81438,-0.026037\H,0,1.085521,1.164845,0.351681\\Version=EM64L-G09RevC.
 01\State=2-A\HF=-549.2181553\S2=0.755408\S2-1=0.\S2A=0.75002\RMSD=9.69
 4e-09\Dipole=0.4312332,-0.1005074,0.2763679\Quadrupole=-2.2445148,1.96
 5036,0.2794788,2.2341232,0.5955217,0.8261357\PG=C01 [X(H1O2S1)]\\@


 WE THE UNWILLING
 LED BY THE UNQUALIFIED
 HAVE BEEN DOING THE UNBELIEVABLE SO LONG WITH SO LITTLE
 THAT WE NOW ATTEMPT THE IMPOSSIBLE WITH NOTHING.

                                    -- ANONYMOUS
 Job cpu time:  0 days  0 hours  3 minutes 27.2 seconds.
 File lengths (MBytes):  RWF=     21 Int=      0 D2E=      0 Chk=      2 Scr=      1
 Normal termination of Gaussian 09 at Thu Aug 21 00:36:00 2025.
