 Entering Gaussian System, Link 0=g09
 Initial command:
 /soft/g09.c01/g09/l1.exe /scr/macias/389595.qcexmaster_vib4_-0.15/Gau-25674.inp -scrdir=/scr/macias/389595.qcexmaster_vib4_-0.15/
 Entering Link 1 = /soft/g09.c01/g09/l1.exe PID=     25696.
  
 Copyright (c) 1988,1990,1992,1993,1995,1998,2003,2009,2011,
            Gaussian, Inc.  All Rights Reserved.
  
 This is part of the Gaussian(R) 09 program.  It is based on
 the Gaussian(R) 03 system (copyright 2003, Gaussian, Inc.),
 the Gaussian(R) 98 system (copyright 1998, Gaussian, Inc.),
 the Gaussian(R) 94 system (copyright 1995, Gaussian, Inc.),
 the Gaussian 92(TM) system (copyright 1992, Gaussian, Inc.),
 the Gaussian 90(TM) system (copyright 1990, Gaussian, Inc.),
 the Gaussian 88(TM) system (copyright 1988, Gaussian, Inc.),
 the Gaussian 86(TM) system (copyright 1986, Carnegie Mellon
 University), and the Gaussian 82(TM) system (copyright 1983,
 Carnegie Mellon University). Gaussian is a federally registered
 trademark of Gaussian, Inc.
  
 This software contains proprietary and confidential information,
 including trade secrets, belonging to Gaussian, Inc.
  
 This software is provided under written license and may be
 used, copied, transmitted, or stored only in accord with that
 written license.
  
 The following legend is applicable only to US Government
 contracts under FAR:
  
                    RESTRICTED RIGHTS LEGEND
  
 Use, reproduction and disclosure by the US Government is
 subject to restrictions as set forth in subparagraphs (a)
 and (c) of the Commercial Computer Software - Restricted
 Rights clause in FAR 52.227-19.
  
 Gaussian, Inc.
 340 Quinnipiac St., Bldg. 40, Wallingford CT 06492
  
  
 ---------------------------------------------------------------
 Warning -- This program may not be used in any manner that
 competes with the business of Gaussian, Inc. or will provide
 assistance to any competitor of Gaussian, Inc.  The licensee
 of this program is prohibited from giving any competitor of
 Gaussian, Inc. access to this program.  By using this program,
 the user acknowledges that Gaussian, Inc. is engaged in the
 business of creating and licensing software in the field of
 computational chemistry and represents and warrants to the
 licensee that it is not a competitor of Gaussian, Inc. and that
 it will not use this program in any manner prohibited above.
 ---------------------------------------------------------------
  

 Cite this work as:
 Gaussian 09, Revision C.01,
 M. J. Frisch, G. W. Trucks, H. B. Schlegel, G. E. Scuseria, 
 M. A. Robb, J. R. Cheeseman, G. Scalmani, V. Barone, B. Mennucci, 
 G. A. Petersson, H. Nakatsuji, M. Caricato, X. Li, H. P. Hratchian, 
 A. F. Izmaylov, J. Bloino, G. Zheng, J. L. Sonnenberg, M. Hada, 
 M. Ehara, K. Toyota, R. Fukuda, J. Hasegawa, M. Ishida, T. Nakajima, 
 Y. Honda, O. Kitao, H. Nakai, T. Vreven, J. A. Montgomery, Jr., 
 J. E. Peralta, F. Ogliaro, M. Bearpark, J. J. Heyd, E. Brothers, 
 K. N. Kudin, V. N. Staroverov, T. Keith, R. Kobayashi, J. Normand, 
 K. Raghavachari, A. Rendell, J. C. Burant, S. S. Iyengar, J. Tomasi, 
 M. Cossi, N. Rega, J. M. Millam, M. Klene, J. E. Knox, J. B. Cross, 
 V. Bakken, C. Adamo, J. Jaramillo, R. Gomperts, R. E. Stratmann, 
 O. Yazyev, A. J. Austin, R. Cammi, C. Pomelli, J. W. Ochterski, 
 R. L. Martin, K. Morokuma, V. G. Zakrzewski, G. A. Voth, 
 P. Salvador, J. J. Dannenberg, S. Dapprich, A. D. Daniels, 
 O. Farkas, J. B. Foresman, J. V. Ortiz, J. Cioslowski, 
 and D. J. Fox, Gaussian, Inc., Wallingford CT, 2010.
 
  
 -----  Compilado por  -----------------------------------------
  
  Servicio de Calculo | Servicio de Informatica U. de Valencia
     calculo@uv.es    |  E-46100 Burjassot (Valencia) SPAIN
  
 ---------------------------------------------------------------
  
 ******************************************
 Gaussian 09:  EM64L-G09RevC.01 23-Sep-2011
                20-Aug-2025 
 ******************************************
 %chk=opt_freq.chk
 %nproc=6
 Will use up to    6 processors via shared memory.
 %mem=20GB
 Default route:  CacheSize=131072
 -----------------------
 #sp wB97XD/6-311+G(3df)
 -----------------------
 1/4=131072,38=1/1;
 2/4=131072,12=2,17=6,18=5,40=1/2;
 3/4=131072,5=4,6=6,7=16,11=2,16=1,25=1,30=1,74=-58/1,2,3;
 4/4=131072/1;
 5/4=131072,5=2,38=5/2;
 6/4=131072,7=2,8=2,9=2,10=2,28=1/1;
 99/4=131072,5=1,9=1/99;
 ---------------------
 Optimizacion del hoso
 ---------------------
 Charge =  0 Multiplicity = 2
 Symbolic Z-Matrix:
 S                    -0.14484  -0.47701   0.01481 
 O                     1.30263   0.26547  -0.04204 
 O                    -1.17514   0.54094  -0.02004 
 H                     1.36952   1.19735   0.23418 
 
                          Input orientation:                          
 ---------------------------------------------------------------------
 Center     Atomic      Atomic             Coordinates (Angstroms)
 Number     Number       Type             X           Y           Z
 ---------------------------------------------------------------------
      1         16           0       -0.144843   -0.477008    0.014808
      2          8           0        1.302632    0.265471   -0.042040
      3          8           0       -1.175136    0.540938   -0.020037
      4          1           0        1.369521    1.197345    0.234181
 ---------------------------------------------------------------------
                    Distance matrix (angstroms):
                    1          2          3          4
     1  S    0.000000
     2  O    1.627787   0.000000
     3  O    1.448769   2.493131   0.000000
     4  H    2.268233   0.974249   2.640223   0.000000
 Stoichiometry    HO2S(2)
 Framework group  C1[X(HO2S)]
 Deg. of freedom     6
 Full point group                 C1      NOp   1
 Largest Abelian subgroup         C1      NOp   1
 Largest concise Abelian subgroup C1      NOp   1
                         Standard orientation:                         
 ---------------------------------------------------------------------
 Center     Atomic      Atomic             Coordinates (Angstroms)
 Number     Number       Type             X           Y           Z
 ---------------------------------------------------------------------
      1         16           0       -0.157754   -0.474083    0.015230
      2          8           0        1.306047    0.235576   -0.042768
      3          8           0       -1.164833    0.566919   -0.016998
      4          1           0        1.394348    1.165370    0.234444
 ---------------------------------------------------------------------
 Rotational constants (GHZ):     34.6514944      9.7424788      7.6246611
 Standard basis: 6-311+G(3df) (5D, 7F)
 There are   128 symmetry adapted basis functions of A   symmetry.
 Integral buffers will be    131072 words long.
 Raffenetti 2 integral format.
 Two-electron integral symmetry is turned on.
   128 basis functions,   193 primitive gaussians,   146 cartesian basis functions
    17 alpha electrons       16 beta electrons
       nuclear repulsion energy       111.6305738141 Hartrees.
 NAtoms=    4 NActive=    4 NUniq=    4 SFac= 1.00D+00 NAtFMM=   60 NAOKFM=F Big=F
 Nuclear repulsion after empirical dispersion term =      111.6302975863 Hartrees.
 One-electron integrals computed using PRISM.
 NBasis=   128 RedAO= T  NBF=   128
 NBsUse=   128 1.00D-06 NBFU=   128
 Harris functional with IExCor= 4639 diagonalized for initial guess.
 ExpMin= 4.05D-02 ExpMax= 9.34D+04 ExpMxC= 3.17D+03 IAcc=2 IRadAn=         4 AccDes= 0.00D+00
 HarFok:  IExCor= 4639 AccDes= 0.00D+00 IRadAn=         4 IDoV= 1
 ScaDFX=  1.000000  1.000000  1.000000  1.000000
 FoFCou: FMM=F IPFlag=           0 FMFlag=      100000 FMFlg1=           0
         NFxFlg=           0 DoJE=T BraDBF=F KetDBF=T FulRan=T
         Omega=  0.000000  0.000000  1.000000  0.000000  0.000000 ICntrl=     500 IOpCl=  0
         NMat0=    1 NMatS0=    1 NMatT0=    0 NMatD0=    1 NMtDS0=    0 NMtDT0=    0
         I1Cent=           4 NGrid=           0.
 Petite list used in FoFCou.
 Initial guess orbital symmetries:
 Alpha Orbitals:
       Occupied  (A) (A) (A) (A) (A) (A) (A) (A) (A) (A) (A) (A)
                 (A) (A) (A) (A) (A)
       Virtual   (A) (A) (A) (A) (A) (A) (A) (A) (A) (A) (A) (A)
                 (A) (A) (A) (A) (A) (A) (A) (A) (A) (A) (A) (A)
                 (A) (A) (A) (A) (A) (A) (A) (A) (A) (A) (A) (A)
                 (A) (A) (A) (A) (A) (A) (A) (A) (A) (A) (A) (A)
                 (A) (A) (A) (A) (A) (A) (A) (A) (A) (A) (A) (A)
                 (A) (A) (A) (A) (A) (A) (A) (A) (A) (A) (A) (A)
                 (A) (A) (A) (A) (A) (A) (A) (A) (A) (A) (A) (A)
                 (A) (A) (A) (A) (A) (A) (A) (A) (A) (A) (A) (A)
                 (A) (A) (A) (A) (A) (A) (A) (A) (A) (A) (A) (A)
                 (A) (A) (A)
 Beta  Orbitals:
       Occupied  (A) (A) (A) (A) (A) (A) (A) (A) (A) (A) (A) (A)
                 (A) (A) (A) (A)
       Virtual   (A) (A) (A) (A) (A) (A) (A) (A) (A) (A) (A) (A)
                 (A) (A) (A) (A) (A) (A) (A) (A) (A) (A) (A) (A)
                 (A) (A) (A) (A) (A) (A) (A) (A) (A) (A) (A) (A)
                 (A) (A) (A) (A) (A) (A) (A) (A) (A) (A) (A) (A)
                 (A) (A) (A) (A) (A) (A) (A) (A) (A) (A) (A) (A)
                 (A) (A) (A) (A) (A) (A) (A) (A) (A) (A) (A) (A)
                 (A) (A) (A) (A) (A) (A) (A) (A) (A) (A) (A) (A)
                 (A) (A) (A) (A) (A) (A) (A) (A) (A) (A) (A) (A)
                 (A) (A) (A) (A) (A) (A) (A) (A) (A) (A) (A) (A)
                 (A) (A) (A) (A)
 The electronic state of the initial guess is 2-A.
 Initial guess <Sx>= 0.0000 <Sy>= 0.0000 <Sz>= 0.5000 <S**2>= 0.7500 S= 0.5000
 Requested convergence on RMS density matrix=1.00D-08 within 128 cycles.
 Requested convergence on MAX density matrix=1.00D-06.
 Requested convergence on             energy=1.00D-06.
 No special actions if energy rises.
 FoFJK:  IHMeth= 1 ICntrl=     0 DoSepK=T KAlg= 1 I1Cent= 0 FoldK=F
 FoFJK:  IHMeth= 1 ICntrl=     0 DoSepK=T KAlg= 1 I1Cent= 0 FoldK=F
 FoFJK:  IHMeth= 1 ICntrl=     0 DoSepK=T KAlg= 1 I1Cent= 0 FoldK=F
 FoFJK:  IHMeth= 1 ICntrl=     0 DoSepK=T KAlg= 1 I1Cent= 0 FoldK=F
 FoFJK:  IHMeth= 1 ICntrl=     0 DoSepK=T KAlg= 1 I1Cent= 0 FoldK=F
 FoFJK:  IHMeth= 1 ICntrl=     0 DoSepK=T KAlg= 1 I1Cent= 0 FoldK=F
 FoFJK:  IHMeth= 1 ICntrl=     0 DoSepK=T KAlg= 1 I1Cent= 0 FoldK=F
 FoFJK:  IHMeth= 1 ICntrl=     0 DoSepK=T KAlg= 1 I1Cent= 0 FoldK=F
 FoFJK:  IHMeth= 1 ICntrl=     0 DoSepK=T KAlg= 1 I1Cent= 0 FoldK=F
 FoFJK:  IHMeth= 1 ICntrl=     0 DoSepK=T KAlg= 1 I1Cent= 0 FoldK=F
 FoFJK:  IHMeth= 1 ICntrl=     0 DoSepK=T KAlg= 1 I1Cent= 0 FoldK=F
 FoFJK:  IHMeth= 1 ICntrl=     0 DoSepK=T KAlg= 1 I1Cent= 0 FoldK=F
 FoFJK:  IHMeth= 1 ICntrl=     0 DoSepK=T KAlg= 1 I1Cent= 0 FoldK=F
 FoFJK:  IHMeth= 1 ICntrl=     0 DoSepK=T KAlg= 1 I1Cent= 0 FoldK=F
 FoFJK:  IHMeth= 1 ICntrl=     0 DoSepK=T KAlg= 1 I1Cent= 0 FoldK=F
 SCF Done:  E(UwB97XD) =  -549.219008314     A.U. after   15 cycles
             Convg  =    0.6444D-08             -V/T =  2.0017
 <Sx>= 0.0000 <Sy>= 0.0000 <Sz>= 0.5000 <S**2>= 0.7554 S= 0.5027
 <L.S>= 0.000000000000E+00
 Annihilation of the first spin contaminant:
 S**2 before annihilation     0.7554,   after     0.7500

 **********************************************************************

            Population analysis using the SCF density.

 **********************************************************************

 Orbital symmetries:
 Alpha Orbitals:
       Occupied  (A) (A) (A) (A) (A) (A) (A) (A) (A) (A) (A) (A)
                 (A) (A) (A) (A) (A)
       Virtual   (A) (A) (A) (A) (A) (A) (A) (A) (A) (A) (A) (A)
                 (A) (A) (A) (A) (A) (A) (A) (A) (A) (A) (A) (A)
                 (A) (A) (A) (A) (A) (A) (A) (A) (A) (A) (A) (A)
                 (A) (A) (A) (A) (A) (A) (A) (A) (A) (A) (A) (A)
                 (A) (A) (A) (A) (A) (A) (A) (A) (A) (A) (A) (A)
                 (A) (A) (A) (A) (A) (A) (A) (A) (A) (A) (A) (A)
                 (A) (A) (A) (A) (A) (A) (A) (A) (A) (A) (A) (A)
                 (A) (A) (A) (A) (A) (A) (A) (A) (A) (A) (A) (A)
                 (A) (A) (A) (A) (A) (A) (A) (A) (A) (A) (A) (A)
                 (A) (A) (A)
 Beta  Orbitals:
       Occupied  (A) (A) (A) (A) (A) (A) (A) (A) (A) (A) (A) (A)
                 (A) (A) (A) (A)
       Virtual   (A) (A) (A) (A) (A) (A) (A) (A) (A) (A) (A) (A)
                 (A) (A) (A) (A) (A) (A) (A) (A) (A) (A) (A) (A)
                 (A) (A) (A) (A) (A) (A) (A) (A) (A) (A) (A) (A)
                 (A) (A) (A) (A) (A) (A) (A) (A) (A) (A) (A) (A)
                 (A) (A) (A) (A) (A) (A) (A) (A) (A) (A) (A) (A)
                 (A) (A) (A) (A) (A) (A) (A) (A) (A) (A) (A) (A)
                 (A) (A) (A) (A) (A) (A) (A) (A) (A) (A) (A) (A)
                 (A) (A) (A) (A) (A) (A) (A) (A) (A) (A) (A) (A)
                 (A) (A) (A) (A) (A) (A) (A) (A) (A) (A) (A) (A)
                 (A) (A) (A) (A)
 The electronic state is 2-A.
 Alpha  occ. eigenvalues --  -89.14881 -19.31112 -19.28039  -8.17609  -6.12559
 Alpha  occ. eigenvalues --   -6.12296  -6.11938  -1.22019  -1.14653  -0.80353
 Alpha  occ. eigenvalues --   -0.63143  -0.56900  -0.56260  -0.49991  -0.46832
 Alpha  occ. eigenvalues --   -0.42376  -0.30624
 Alpha virt. eigenvalues --    0.04668   0.06786   0.07783   0.09436   0.11963
 Alpha virt. eigenvalues --    0.13549   0.18610   0.22910   0.24598   0.25503
 Alpha virt. eigenvalues --    0.26695   0.28561   0.29991   0.32733   0.33130
 Alpha virt. eigenvalues --    0.35339   0.36590   0.38294   0.39561   0.40703
 Alpha virt. eigenvalues --    0.41510   0.50946   0.56106   0.68839   0.78695
 Alpha virt. eigenvalues --    0.80930   0.86405   0.88564   0.93798   0.96341
 Alpha virt. eigenvalues --    0.96415   0.97892   0.99534   1.01711   1.05271
 Alpha virt. eigenvalues --    1.09087   1.10300   1.14296   1.16013   1.17958
 Alpha virt. eigenvalues --    1.21984   1.28338   1.34202   1.37903   1.41054
 Alpha virt. eigenvalues --    1.45212   1.66881   1.68354   1.75148   1.82136
 Alpha virt. eigenvalues --    1.93404   2.02120   2.08915   2.09118   2.14977
 Alpha virt. eigenvalues --    2.20981   2.30968   2.36648   2.42272   3.38145
 Alpha virt. eigenvalues --    3.42395   3.45254   3.47805   3.50121   3.55642
 Alpha virt. eigenvalues --    3.57000   3.64624   3.70888   3.72801   4.53384
 Alpha virt. eigenvalues --    4.57796   4.62572   4.70870   4.91667   4.99467
 Alpha virt. eigenvalues --    5.03881   5.04405   5.05115   5.06616   5.09447
 Alpha virt. eigenvalues --    5.10207   5.11413   5.16877   5.24414   5.24929
 Alpha virt. eigenvalues --    5.43364   5.50618   5.53756   5.59124   5.67153
 Alpha virt. eigenvalues --    5.70732   5.86688   5.99887   6.59270   8.79832
 Alpha virt. eigenvalues --   14.33048  14.35759  14.37538  14.39381  14.41501
 Alpha virt. eigenvalues --   14.46265  14.48245  14.50294  14.62263  14.71435
 Alpha virt. eigenvalues --   17.36333  17.61722  17.92850  50.03196  50.11852
 Alpha virt. eigenvalues --  189.85501
  Beta  occ. eigenvalues --  -89.14497 -19.30871 -19.27161  -8.17266  -6.12333
  Beta  occ. eigenvalues --   -6.11730  -6.11064  -1.20762  -1.13331  -0.78167
  Beta  occ. eigenvalues --   -0.61704  -0.55834  -0.52838  -0.48113  -0.43270
  Beta  occ. eigenvalues --   -0.41227
  Beta virt. eigenvalues --   -0.03575   0.05178   0.07119   0.08216   0.10055
  Beta virt. eigenvalues --    0.12706   0.14484   0.18918   0.23162   0.24919
  Beta virt. eigenvalues --    0.25697   0.27295   0.28874   0.30339   0.32855
  Beta virt. eigenvalues --    0.34288   0.35589   0.36990   0.38989   0.40957
  Beta virt. eigenvalues --    0.41479   0.41982   0.51542   0.56314   0.69353
  Beta virt. eigenvalues --    0.79209   0.81293   0.86812   0.89432   0.94304
  Beta virt. eigenvalues --    0.96792   0.97396   0.98798   1.00225   1.02768
  Beta virt. eigenvalues --    1.06090   1.09963   1.12331   1.14601   1.16510
  Beta virt. eigenvalues --    1.18654   1.23275   1.28814   1.35670   1.38709
  Beta virt. eigenvalues --    1.41384   1.45555   1.69838   1.70422   1.76764
  Beta virt. eigenvalues --    1.83681   1.94244   2.03609   2.09629   2.11447
  Beta virt. eigenvalues --    2.15305   2.21515   2.31399   2.37403   2.42919
  Beta virt. eigenvalues --    3.39070   3.43906   3.47184   3.49159   3.51460
  Beta virt. eigenvalues --    3.56778   3.58882   3.65419   3.71552   3.73600
  Beta virt. eigenvalues --    4.53919   4.57934   4.63458   4.71380   4.92252
  Beta virt. eigenvalues --    5.00019   5.04796   5.05165   5.05773   5.07815
  Beta virt. eigenvalues --    5.11825   5.12994   5.13770   5.17715   5.25437
  Beta virt. eigenvalues --    5.26176   5.43990   5.51125   5.54529   5.59792
  Beta virt. eigenvalues --    5.67397   5.71868   5.88404   6.00404   6.59676
  Beta virt. eigenvalues --    8.80194  14.34367  14.38019  14.40696  14.41262
  Beta virt. eigenvalues --   14.43882  14.48984  14.49635  14.51413  14.62936
  Beta virt. eigenvalues --   14.73433  17.37720  17.62015  17.93174  50.03418
  Beta virt. eigenvalues --   50.12632 189.85803
          Condensed to atoms (all electrons):
              1          2          3          4
     1  S   15.342711   0.007538   0.137681   0.008882
     2  O    0.007538   8.402529   0.003619   0.208359
     3  O    0.137681   0.003619   8.233376  -0.002098
     4  H    0.008882   0.208359  -0.002098   0.293423
 Mulliken atomic charges:
              1
     1  S    0.503189
     2  O   -0.622045
     3  O   -0.372578
     4  H    0.491434
 Sum of Mulliken atomic charges =   0.00000
 Mulliken charges with hydrogens summed into heavy atoms:
              1
     1  S    0.503189
     2  O   -0.130611
     3  O   -0.372578
 Sum of Mulliken charges with hydrogens summed into heavy atoms =   0.00000
          Atomic-Atomic Spin Densities.
              1          2          3          4
     1  S    0.945524  -0.101057  -0.200908  -0.000440
     2  O   -0.101057   0.146150   0.019418  -0.003651
     3  O   -0.200908   0.019418   0.477773  -0.000713
     4  H   -0.000440  -0.003651  -0.000713   0.005253
 Mulliken atomic spin densities:
              1
     1  S    0.643119
     2  O    0.060861
     3  O    0.295570
     4  H    0.000450
 Sum of Mulliken atomic spin densities =   1.00000
 Electronic spatial extent (au):  <R**2>=            177.0223
 Charge=              0.0000 electrons
 Dipole moment (field-independent basis, Debye):
    X=              1.3982    Y=              0.1167    Z=              0.5162  Tot=              1.4950
 Quadrupole moment (field-independent basis, Debye-Ang):
   XX=            -25.8586   YY=            -21.0539   ZZ=            -23.6141
   XY=              4.0155   XZ=              0.7725   YZ=              0.7709
 Traceless Quadrupole moment (field-independent basis, Debye-Ang):
   XX=             -2.3497   YY=              2.4549   ZZ=             -0.1052
   XY=              4.0155   XZ=              0.7725   YZ=              0.7709
 Octapole moment (field-independent basis, Debye-Ang**2):
  XXX=              2.7544  YYY=              5.1861  ZZZ=              0.0035  XYY=              5.1212
  XXY=              2.4729  XXZ=              1.0991  XZZ=              0.0792  YZZ=              1.2174
  YYZ=              0.8790  XYZ=              1.0272
 Hexadecapole moment (field-independent basis, Debye-Ang**3):
 XXXX=           -138.1612 YYYY=            -51.9205 ZZZZ=            -24.9043 XXXY=              9.2030
 XXXZ=              1.7708 YYYX=              7.0809 YYYZ=              1.2765 ZZZX=              0.4314
 ZZZY=              0.5409 XXYY=            -25.1570 XXZZ=            -26.8199 YYZZ=            -13.9338
 XXYZ=              1.5875 YYXZ=              1.2638 ZZXY=              0.5032
 N-N= 1.116302975863D+02 E-N=-2.282615688524D+03  KE= 8.210431906024D+02
                          Isotropic Fermi Contact Couplings
        Atom                 a.u.       MegaHertz       Gauss      10(-4) cm-1
     1  S(33)              0.10044      34.49870      12.30999      11.50753
     2  O(17)              0.02160     -13.09672      -4.67324      -4.36860
     3  O(17)              0.05202     -31.53174     -11.25131     -10.51785
     4  H(1)               0.00037       1.66595       0.59445       0.55570
 --------------------------------------------------------
       Center         ----  Spin Dipole Couplings  ----
                      3XX-RR        3YY-RR        3ZZ-RR
 --------------------------------------------------------
     1   Atom       -1.500804     -1.610903      3.111707
     2   Atom       -0.235061     -0.202791      0.437852
     3   Atom       -0.767965     -0.771601      1.539565
     4   Atom       -0.009178      0.019098     -0.009920
 --------------------------------------------------------
                        XY            XZ            YZ
 --------------------------------------------------------
     1   Atom       -0.006602     -0.090007      0.123480
     2   Atom        0.011882      0.002457     -0.104957
     3   Atom        0.004640      0.055539      0.023678
     4   Atom        0.010326      0.001859      0.004127
 --------------------------------------------------------


 ---------------------------------------------------------------------------------
              Anisotropic Spin Dipole Couplings in Principal Axis System
 ---------------------------------------------------------------------------------

       Atom             a.u.   MegaHertz   Gauss  10(-4) cm-1        Axes

              Baa    -1.6143   -66.184   -23.616   -22.077  0.0380  0.9990 -0.0254
     1 S(33)  Bbb    -1.5024   -61.597   -21.979   -20.547  0.9991 -0.0375  0.0205
              Bcc     3.1167   127.782    45.596    42.623 -0.0195  0.0261  0.9995
 
              Baa    -0.2417    17.489     6.240     5.834  0.8772 -0.4740 -0.0764
     2 O(17)  Bbb    -0.2129    15.406     5.497     5.139  0.4801  0.8663  0.1379
              Bcc     0.4546   -32.895   -11.738   -10.973  0.0008 -0.1576  0.9875
 
              Baa    -0.7748    56.067    20.006    18.702 -0.5923  0.8057  0.0060
     3 O(17)  Bbb    -0.7663    55.450    19.786    18.496  0.8054  0.5923 -0.0255
              Bcc     1.5411  -111.516   -39.792   -37.198  0.0241  0.0103  0.9997
 
              Baa    -0.0127    -6.753    -2.410    -2.253  0.9358 -0.2757 -0.2198
     4 H(1)   Bbb    -0.0104    -5.562    -1.985    -1.855  0.1696 -0.1944  0.9661
              Bcc     0.0231    12.315     4.394     4.108  0.3091  0.9414  0.1351
 

 ---------------------------------------------------------------------------------

 1\1\ CPUSERV-QCEXNOD15\SP\UwB97XD\6-311+G(3df)\H1O2S1(2)\VPEREZ\20-Aug
 -2025\0\\#sp wB97XD/6-311+G(3df)\\Optimizacion del hoso\\0,2\S,0,-0.14
 4843,-0.477008,0.014808\O,0,1.302632,0.265471,-0.04204\O,0,-1.175136,0
 .540938,-0.020037\H,0,1.369521,1.197345,0.234181\\Version=EM64L-G09Rev
 C.01\State=2-A\HF=-549.2190083\S2=0.755382\S2-1=0.\S2A=0.75002\RMSD=6.
 444e-09\Dipole=0.548628,0.0585476,0.203789\Quadrupole=-1.8815446,1.959
 5829,-0.0780383,2.9015176,0.5553439,0.5876597\PG=C01 [X(H1O2S1)]\\@


 A people that values its privileges above its principles soon loses both.
 -- Dwight D. Eisenhower
 Job cpu time:  0 days  0 hours  5 minutes 44.6 seconds.
 File lengths (MBytes):  RWF=     21 Int=      0 D2E=      0 Chk=      2 Scr=      1
 Normal termination of Gaussian 09 at Wed Aug 20 23:00:04 2025.
