 Entering Gaussian System, Link 0=g09
 Initial command:
 /soft/g09.c01/g09/l1.exe /scr/macias/389577.qcexmaster_vib2_-0.15/Gau-2968.inp -scrdir=/scr/macias/389577.qcexmaster_vib2_-0.15/
 Entering Link 1 = /soft/g09.c01/g09/l1.exe PID=      2969.
  
 Copyright (c) 1988,1990,1992,1993,1995,1998,2003,2009,2011,
            Gaussian, Inc.  All Rights Reserved.
  
 This is part of the Gaussian(R) 09 program.  It is based on
 the Gaussian(R) 03 system (copyright 2003, Gaussian, Inc.),
 the Gaussian(R) 98 system (copyright 1998, Gaussian, Inc.),
 the Gaussian(R) 94 system (copyright 1995, Gaussian, Inc.),
 the Gaussian 92(TM) system (copyright 1992, Gaussian, Inc.),
 the Gaussian 90(TM) system (copyright 1990, Gaussian, Inc.),
 the Gaussian 88(TM) system (copyright 1988, Gaussian, Inc.),
 the Gaussian 86(TM) system (copyright 1986, Carnegie Mellon
 University), and the Gaussian 82(TM) system (copyright 1983,
 Carnegie Mellon University). Gaussian is a federally registered
 trademark of Gaussian, Inc.
  
 This software contains proprietary and confidential information,
 including trade secrets, belonging to Gaussian, Inc.
  
 This software is provided under written license and may be
 used, copied, transmitted, or stored only in accord with that
 written license.
  
 The following legend is applicable only to US Government
 contracts under FAR:
  
                    RESTRICTED RIGHTS LEGEND
  
 Use, reproduction and disclosure by the US Government is
 subject to restrictions as set forth in subparagraphs (a)
 and (c) of the Commercial Computer Software - Restricted
 Rights clause in FAR 52.227-19.
  
 Gaussian, Inc.
 340 Quinnipiac St., Bldg. 40, Wallingford CT 06492
  
  
 ---------------------------------------------------------------
 Warning -- This program may not be used in any manner that
 competes with the business of Gaussian, Inc. or will provide
 assistance to any competitor of Gaussian, Inc.  The licensee
 of this program is prohibited from giving any competitor of
 Gaussian, Inc. access to this program.  By using this program,
 the user acknowledges that Gaussian, Inc. is engaged in the
 business of creating and licensing software in the field of
 computational chemistry and represents and warrants to the
 licensee that it is not a competitor of Gaussian, Inc. and that
 it will not use this program in any manner prohibited above.
 ---------------------------------------------------------------
  

 Cite this work as:
 Gaussian 09, Revision C.01,
 M. J. Frisch, G. W. Trucks, H. B. Schlegel, G. E. Scuseria, 
 M. A. Robb, J. R. Cheeseman, G. Scalmani, V. Barone, B. Mennucci, 
 G. A. Petersson, H. Nakatsuji, M. Caricato, X. Li, H. P. Hratchian, 
 A. F. Izmaylov, J. Bloino, G. Zheng, J. L. Sonnenberg, M. Hada, 
 M. Ehara, K. Toyota, R. Fukuda, J. Hasegawa, M. Ishida, T. Nakajima, 
 Y. Honda, O. Kitao, H. Nakai, T. Vreven, J. A. Montgomery, Jr., 
 J. E. Peralta, F. Ogliaro, M. Bearpark, J. J. Heyd, E. Brothers, 
 K. N. Kudin, V. N. Staroverov, T. Keith, R. Kobayashi, J. Normand, 
 K. Raghavachari, A. Rendell, J. C. Burant, S. S. Iyengar, J. Tomasi, 
 M. Cossi, N. Rega, J. M. Millam, M. Klene, J. E. Knox, J. B. Cross, 
 V. Bakken, C. Adamo, J. Jaramillo, R. Gomperts, R. E. Stratmann, 
 O. Yazyev, A. J. Austin, R. Cammi, C. Pomelli, J. W. Ochterski, 
 R. L. Martin, K. Morokuma, V. G. Zakrzewski, G. A. Voth, 
 P. Salvador, J. J. Dannenberg, S. Dapprich, A. D. Daniels, 
 O. Farkas, J. B. Foresman, J. V. Ortiz, J. Cioslowski, 
 and D. J. Fox, Gaussian, Inc., Wallingford CT, 2010.
 
  
 -----  Compilado por  -----------------------------------------
  
  Servicio de Calculo | Servicio de Informatica U. de Valencia
     calculo@uv.es    |  E-46100 Burjassot (Valencia) SPAIN
  
 ---------------------------------------------------------------
  
 ******************************************
 Gaussian 09:  EM64L-G09RevC.01 23-Sep-2011
                21-Aug-2025 
 ******************************************
 %chk=opt_freq.chk
 %nproc=6
 Will use up to    6 processors via shared memory.
 %mem=20GB
 Default route:  CacheSize=131072
 -----------------------
 #sp wB97XD/6-311+G(3df)
 -----------------------
 1/4=131072,38=1/1;
 2/4=131072,12=2,17=6,18=5,40=1/2;
 3/4=131072,5=4,6=6,7=16,11=2,16=1,25=1,30=1,74=-58/1,2,3;
 4/4=131072/1;
 5/4=131072,5=2,38=5/2;
 6/4=131072,7=2,8=2,9=2,10=2,28=1/1;
 99/4=131072,5=1,9=1/99;
 ---------------------
 Optimizacion del hoso
 ---------------------
 Charge =  0 Multiplicity = 2
 Symbolic Z-Matrix:
 S                    -0.14034  -0.50101   0.02081 
 O                     1.26813   0.28497  -0.05254 
 O                    -1.13464   0.57244  -0.02454 
 H                     1.12052   1.16585   0.32868 
 
                          Input orientation:                          
 ---------------------------------------------------------------------
 Center     Atomic      Atomic             Coordinates (Angstroms)
 Number     Number       Type             X           Y           Z
 ---------------------------------------------------------------------
      1         16           0       -0.140343   -0.501008    0.020808
      2          8           0        1.268132    0.284971   -0.052540
      3          8           0       -1.134636    0.572438   -0.024537
      4          1           0        1.120521    1.165845    0.328681
 ---------------------------------------------------------------------
                    Distance matrix (angstroms):
                    1          2          3          4
     1  S    0.000000
     2  O    1.614604   0.000000
     3  O    1.463886   2.420065   0.000000
     4  H    2.112573   0.971111   2.358522   0.000000
 Stoichiometry    HO2S(2)
 Framework group  C1[X(HO2S)]
 Deg. of freedom     6
 Full point group                 C1      NOp   1
 Largest Abelian subgroup         C1      NOp   1
 Largest concise Abelian subgroup C1      NOp   1
                         Standard orientation:                         
 ---------------------------------------------------------------------
 Center     Atomic      Atomic             Coordinates (Angstroms)
 Number     Number       Type             X           Y           Z
 ---------------------------------------------------------------------
      1         16           0       -0.142539   -0.500212    0.018577
      2          8           0        1.272031    0.274819   -0.053972
      3          8           0       -1.128393    0.581090   -0.024302
      4          1           0        1.131516    1.156113    0.328957
 ---------------------------------------------------------------------
 Rotational constants (GHZ):     31.4801064     10.4448436      7.8822721
 Standard basis: 6-311+G(3df) (5D, 7F)
 There are   128 symmetry adapted basis functions of A   symmetry.
 Integral buffers will be    131072 words long.
 Raffenetti 2 integral format.
 Two-electron integral symmetry is turned on.
   128 basis functions,   193 primitive gaussians,   146 cartesian basis functions
    17 alpha electrons       16 beta electrons
       nuclear repulsion energy       112.3782744799 Hartrees.
 NAtoms=    4 NActive=    4 NUniq=    4 SFac= 1.00D+00 NAtFMM=   60 NAOKFM=F Big=F
 Nuclear repulsion after empirical dispersion term =      112.3780658535 Hartrees.
 One-electron integrals computed using PRISM.
 NBasis=   128 RedAO= T  NBF=   128
 NBsUse=   128 1.00D-06 NBFU=   128
 Harris functional with IExCor= 4639 diagonalized for initial guess.
 ExpMin= 4.05D-02 ExpMax= 9.34D+04 ExpMxC= 3.17D+03 IAcc=2 IRadAn=         4 AccDes= 0.00D+00
 HarFok:  IExCor= 4639 AccDes= 0.00D+00 IRadAn=         4 IDoV= 1
 ScaDFX=  1.000000  1.000000  1.000000  1.000000
 FoFCou: FMM=F IPFlag=           0 FMFlag=      100000 FMFlg1=           0
         NFxFlg=           0 DoJE=T BraDBF=F KetDBF=T FulRan=T
         Omega=  0.000000  0.000000  1.000000  0.000000  0.000000 ICntrl=     500 IOpCl=  0
         NMat0=    1 NMatS0=    1 NMatT0=    0 NMatD0=    1 NMtDS0=    0 NMtDT0=    0
         I1Cent=           4 NGrid=           0.
 Petite list used in FoFCou.
 Initial guess orbital symmetries:
 Alpha Orbitals:
       Occupied  (A) (A) (A) (A) (A) (A) (A) (A) (A) (A) (A) (A)
                 (A) (A) (A) (A) (A)
       Virtual   (A) (A) (A) (A) (A) (A) (A) (A) (A) (A) (A) (A)
                 (A) (A) (A) (A) (A) (A) (A) (A) (A) (A) (A) (A)
                 (A) (A) (A) (A) (A) (A) (A) (A) (A) (A) (A) (A)
                 (A) (A) (A) (A) (A) (A) (A) (A) (A) (A) (A) (A)
                 (A) (A) (A) (A) (A) (A) (A) (A) (A) (A) (A) (A)
                 (A) (A) (A) (A) (A) (A) (A) (A) (A) (A) (A) (A)
                 (A) (A) (A) (A) (A) (A) (A) (A) (A) (A) (A) (A)
                 (A) (A) (A) (A) (A) (A) (A) (A) (A) (A) (A) (A)
                 (A) (A) (A) (A) (A) (A) (A) (A) (A) (A) (A) (A)
                 (A) (A) (A)
 Beta  Orbitals:
       Occupied  (A) (A) (A) (A) (A) (A) (A) (A) (A) (A) (A) (A)
                 (A) (A) (A) (A)
       Virtual   (A) (A) (A) (A) (A) (A) (A) (A) (A) (A) (A) (A)
                 (A) (A) (A) (A) (A) (A) (A) (A) (A) (A) (A) (A)
                 (A) (A) (A) (A) (A) (A) (A) (A) (A) (A) (A) (A)
                 (A) (A) (A) (A) (A) (A) (A) (A) (A) (A) (A) (A)
                 (A) (A) (A) (A) (A) (A) (A) (A) (A) (A) (A) (A)
                 (A) (A) (A) (A) (A) (A) (A) (A) (A) (A) (A) (A)
                 (A) (A) (A) (A) (A) (A) (A) (A) (A) (A) (A) (A)
                 (A) (A) (A) (A) (A) (A) (A) (A) (A) (A) (A) (A)
                 (A) (A) (A) (A) (A) (A) (A) (A) (A) (A) (A) (A)
                 (A) (A) (A) (A)
 The electronic state of the initial guess is 2-A.
 Initial guess <Sx>= 0.0000 <Sy>= 0.0000 <Sz>= 0.5000 <S**2>= 0.7500 S= 0.5000
 Requested convergence on RMS density matrix=1.00D-08 within 128 cycles.
 Requested convergence on MAX density matrix=1.00D-06.
 Requested convergence on             energy=1.00D-06.
 No special actions if energy rises.
 FoFJK:  IHMeth= 1 ICntrl=     0 DoSepK=T KAlg= 1 I1Cent= 0 FoldK=F
 FoFJK:  IHMeth= 1 ICntrl=     0 DoSepK=T KAlg= 1 I1Cent= 0 FoldK=F
 FoFJK:  IHMeth= 1 ICntrl=     0 DoSepK=T KAlg= 1 I1Cent= 0 FoldK=F
 FoFJK:  IHMeth= 1 ICntrl=     0 DoSepK=T KAlg= 1 I1Cent= 0 FoldK=F
 FoFJK:  IHMeth= 1 ICntrl=     0 DoSepK=T KAlg= 1 I1Cent= 0 FoldK=F
 FoFJK:  IHMeth= 1 ICntrl=     0 DoSepK=T KAlg= 1 I1Cent= 0 FoldK=F
 FoFJK:  IHMeth= 1 ICntrl=     0 DoSepK=T KAlg= 1 I1Cent= 0 FoldK=F
 FoFJK:  IHMeth= 1 ICntrl=     0 DoSepK=T KAlg= 1 I1Cent= 0 FoldK=F
 FoFJK:  IHMeth= 1 ICntrl=     0 DoSepK=T KAlg= 1 I1Cent= 0 FoldK=F
 FoFJK:  IHMeth= 1 ICntrl=     0 DoSepK=T KAlg= 1 I1Cent= 0 FoldK=F
 FoFJK:  IHMeth= 1 ICntrl=     0 DoSepK=T KAlg= 1 I1Cent= 0 FoldK=F
 FoFJK:  IHMeth= 1 ICntrl=     0 DoSepK=T KAlg= 1 I1Cent= 0 FoldK=F
 FoFJK:  IHMeth= 1 ICntrl=     0 DoSepK=T KAlg= 1 I1Cent= 0 FoldK=F
 FoFJK:  IHMeth= 1 ICntrl=     0 DoSepK=T KAlg= 1 I1Cent= 0 FoldK=F
 FoFJK:  IHMeth= 1 ICntrl=     0 DoSepK=T KAlg= 1 I1Cent= 0 FoldK=F
 SCF Done:  E(UwB97XD) =  -549.219577776     A.U. after   15 cycles
             Convg  =    0.8360D-08             -V/T =  2.0016
 <Sx>= 0.0000 <Sy>= 0.0000 <Sz>= 0.5000 <S**2>= 0.7554 S= 0.5027
 <L.S>= 0.000000000000E+00
 Annihilation of the first spin contaminant:
 S**2 before annihilation     0.7554,   after     0.7500

 **********************************************************************

            Population analysis using the SCF density.

 **********************************************************************

 Orbital symmetries:
 Alpha Orbitals:
       Occupied  (A) (A) (A) (A) (A) (A) (A) (A) (A) (A) (A) (A)
                 (A) (A) (A) (A) (A)
       Virtual   (A) (A) (A) (A) (A) (A) (A) (A) (A) (A) (A) (A)
                 (A) (A) (A) (A) (A) (A) (A) (A) (A) (A) (A) (A)
                 (A) (A) (A) (A) (A) (A) (A) (A) (A) (A) (A) (A)
                 (A) (A) (A) (A) (A) (A) (A) (A) (A) (A) (A) (A)
                 (A) (A) (A) (A) (A) (A) (A) (A) (A) (A) (A) (A)
                 (A) (A) (A) (A) (A) (A) (A) (A) (A) (A) (A) (A)
                 (A) (A) (A) (A) (A) (A) (A) (A) (A) (A) (A) (A)
                 (A) (A) (A) (A) (A) (A) (A) (A) (A) (A) (A) (A)
                 (A) (A) (A) (A) (A) (A) (A) (A) (A) (A) (A) (A)
                 (A) (A) (A)
 Beta  Orbitals:
       Occupied  (A) (A) (A) (A) (A) (A) (A) (A) (A) (A) (A) (A)
                 (A) (A) (A) (A)
       Virtual   (A) (A) (A) (A) (A) (A) (A) (A) (A) (A) (A) (A)
                 (A) (A) (A) (A) (A) (A) (A) (A) (A) (A) (A) (A)
                 (A) (A) (A) (A) (A) (A) (A) (A) (A) (A) (A) (A)
                 (A) (A) (A) (A) (A) (A) (A) (A) (A) (A) (A) (A)
                 (A) (A) (A) (A) (A) (A) (A) (A) (A) (A) (A) (A)
                 (A) (A) (A) (A) (A) (A) (A) (A) (A) (A) (A) (A)
                 (A) (A) (A) (A) (A) (A) (A) (A) (A) (A) (A) (A)
                 (A) (A) (A) (A) (A) (A) (A) (A) (A) (A) (A) (A)
                 (A) (A) (A) (A) (A) (A) (A) (A) (A) (A) (A) (A)
                 (A) (A) (A) (A)
 The electronic state is 2-A.
 Alpha  occ. eigenvalues --  -89.15060 -19.31578 -19.28051  -8.17830  -6.12760
 Alpha  occ. eigenvalues --   -6.12527  -6.12165  -1.22920  -1.14394  -0.79888
 Alpha  occ. eigenvalues --   -0.63247  -0.57679  -0.56657  -0.50637  -0.46700
 Alpha  occ. eigenvalues --   -0.42205  -0.31226
 Alpha virt. eigenvalues --    0.04681   0.06546   0.07402   0.09315   0.12028
 Alpha virt. eigenvalues --    0.13611   0.19218   0.22473   0.24743   0.25001
 Alpha virt. eigenvalues --    0.26161   0.28048   0.30085   0.32553   0.33033
 Alpha virt. eigenvalues --    0.35375   0.36204   0.38296   0.39342   0.41032
 Alpha virt. eigenvalues --    0.42403   0.48988   0.56788   0.68668   0.76585
 Alpha virt. eigenvalues --    0.81206   0.85848   0.89329   0.93237   0.95186
 Alpha virt. eigenvalues --    0.95606   0.97178   0.99942   1.02316   1.06232
 Alpha virt. eigenvalues --    1.08707   1.10333   1.12922   1.13623   1.18090
 Alpha virt. eigenvalues --    1.22852   1.31762   1.32989   1.37652   1.39382
 Alpha virt. eigenvalues --    1.43494   1.66814   1.68391   1.74039   1.81938
 Alpha virt. eigenvalues --    1.93577   2.02066   2.08288   2.08396   2.15060
 Alpha virt. eigenvalues --    2.20063   2.29215   2.36547   2.45213   3.37992
 Alpha virt. eigenvalues --    3.43938   3.45783   3.47754   3.51267   3.55392
 Alpha virt. eigenvalues --    3.56422   3.62574   3.69951   3.71155   4.53299
 Alpha virt. eigenvalues --    4.56404   4.61353   4.71623   4.90663   4.98925
 Alpha virt. eigenvalues --    5.02606   5.03257   5.03713   5.07077   5.09550
 Alpha virt. eigenvalues --    5.10176   5.11124   5.17783   5.24352   5.26405
 Alpha virt. eigenvalues --    5.42223   5.47646   5.55571   5.57945   5.67627
 Alpha virt. eigenvalues --    5.70177   5.84921   6.00677   6.64947   8.77416
 Alpha virt. eigenvalues --   14.32792  14.36683  14.37517  14.39239  14.42449
 Alpha virt. eigenvalues --   14.45546  14.46713  14.49356  14.62839  14.71173
 Alpha virt. eigenvalues --   17.36168  17.64273  17.88617  50.03222  50.10877
 Alpha virt. eigenvalues --  189.83163
  Beta  occ. eigenvalues --  -89.14678 -19.31359 -19.27164  -8.17489  -6.12534
  Beta  occ. eigenvalues --   -6.11957  -6.11299  -1.21832  -1.12922  -0.77562
  Beta  occ. eigenvalues --   -0.61891  -0.56855  -0.53473  -0.48392  -0.43144
  Beta  occ. eigenvalues --   -0.41083
  Beta virt. eigenvalues --   -0.04164   0.05215   0.06871   0.07854   0.09946
  Beta virt. eigenvalues --    0.12619   0.14697   0.19626   0.22687   0.25057
  Beta virt. eigenvalues --    0.25204   0.26518   0.28480   0.30401   0.32754
  Beta virt. eigenvalues --    0.34144   0.35612   0.36966   0.38800   0.40591
  Beta virt. eigenvalues --    0.41651   0.43015   0.49672   0.57027   0.69182
  Beta virt. eigenvalues --    0.77080   0.81418   0.86229   0.90261   0.93771
  Beta virt. eigenvalues --    0.95833   0.96605   0.98023   1.00845   1.02850
  Beta virt. eigenvalues --    1.06869   1.09744   1.12287   1.13526   1.14137
  Beta virt. eigenvalues --    1.18908   1.23949   1.32433   1.34063   1.38488
  Beta virt. eigenvalues --    1.39745   1.43890   1.69958   1.70302   1.75720
  Beta virt. eigenvalues --    1.83427   1.94393   2.03483   2.08862   2.10732
  Beta virt. eigenvalues --    2.15482   2.20635   2.29773   2.37535   2.45623
  Beta virt. eigenvalues --    3.38835   3.45583   3.47882   3.49165   3.52459
  Beta virt. eigenvalues --    3.56150   3.58420   3.63296   3.70781   3.71903
  Beta virt. eigenvalues --    4.53832   4.56518   4.62227   4.72160   4.91239
  Beta virt. eigenvalues --    4.99435   5.03142   5.04044   5.04609   5.08423
  Beta virt. eigenvalues --    5.12164   5.12801   5.13521   5.18465   5.25687
  Beta virt. eigenvalues --    5.27247   5.42785   5.48166   5.56279   5.58768
  Beta virt. eigenvalues --    5.68462   5.70846   5.86616   6.01115   6.65353
  Beta virt. eigenvalues --    8.77773  14.33986  14.39125  14.40569  14.41323
  Beta virt. eigenvalues --   14.44251  14.47026  14.49482  14.50718  14.63375
  Beta virt. eigenvalues --   14.73187  17.37549  17.64566  17.88932  50.03413
  Beta virt. eigenvalues --   50.11680 189.83465
          Condensed to atoms (all electrons):
              1          2          3          4
     1  S   15.307268   0.016052   0.161932   0.005599
     2  O    0.016052   8.398461  -0.012541   0.211605
     3  O    0.161932  -0.012541   8.240753   0.001353
     4  H    0.005599   0.211605   0.001353   0.285518
 Mulliken atomic charges:
              1
     1  S    0.509149
     2  O   -0.613577
     3  O   -0.391496
     4  H    0.495925
 Sum of Mulliken atomic charges =   0.00000
 Mulliken charges with hydrogens summed into heavy atoms:
              1
     1  S    0.509149
     2  O   -0.117652
     3  O   -0.391496
 Sum of Mulliken charges with hydrogens summed into heavy atoms =   0.00000
          Atomic-Atomic Spin Densities.
              1          2          3          4
     1  S    0.931631  -0.096870  -0.192183  -0.002426
     2  O   -0.096870   0.134731   0.020025  -0.004887
     3  O   -0.192183   0.020025   0.475678   0.000332
     4  H   -0.002426  -0.004887   0.000332   0.009979
 Mulliken atomic spin densities:
              1
     1  S    0.640152
     2  O    0.052999
     3  O    0.303852
     4  H    0.002997
 Sum of Mulliken atomic spin densities =   1.00000
 Electronic spatial extent (au):  <R**2>=            172.7377
 Charge=              0.0000 electrons
 Dipole moment (field-independent basis, Debye):
    X=              1.1452    Y=             -0.1787    Z=              0.6620  Tot=              1.3348
 Quadrupole moment (field-independent basis, Debye-Ang):
   XX=            -26.6980   YY=            -21.1754   ZZ=            -23.4451
   XY=              3.1443   XZ=              0.7971   YZ=              1.0450
 Traceless Quadrupole moment (field-independent basis, Debye-Ang):
   XX=             -2.9252   YY=              2.5974   ZZ=              0.3277
   XY=              3.1443   XZ=              0.7971   YZ=              1.0450
 Octapole moment (field-independent basis, Debye-Ang**2):
  XXX=              0.9172  YYY=              4.9387  ZZZ=              0.0043  XYY=              4.1962
  XXY=              0.4729  XXZ=              0.8571  XZZ=              0.3161  YZZ=              1.3198
  YYZ=              1.2092  XYZ=              1.1774
 Hexadecapole moment (field-independent basis, Debye-Ang**3):
 XXXX=           -133.3935 YYYY=            -55.1578 ZZZZ=            -24.9272 XXXY=              5.0465
 XXXZ=              1.1485 YYYX=              5.5508 YYYZ=              1.7084 ZZZX=              0.4547
 ZZZY=              0.7541 XXYY=            -26.5084 XXZZ=            -25.3051 YYZZ=            -14.3035
 XXYZ=              1.5130 YYXZ=              1.4002 ZZXY=              0.5184
 N-N= 1.123780658535D+02 E-N=-2.284795231886D+03  KE= 8.210871400129D+02
                          Isotropic Fermi Contact Couplings
        Atom                 a.u.       MegaHertz       Gauss      10(-4) cm-1
     1  S(33)              0.09861      33.86907      12.08533      11.29751
     2  O(17)              0.02182     -13.22478      -4.71893      -4.41131
     3  O(17)              0.05191     -31.46830     -11.22867     -10.49670
     4  H(1)               0.00182       8.14699       2.90705       2.71754
 --------------------------------------------------------
       Center         ----  Spin Dipole Couplings  ----
                      3XX-RR        3YY-RR        3ZZ-RR
 --------------------------------------------------------
     1   Atom       -1.495351     -1.596926      3.092276
     2   Atom       -0.215416     -0.174888      0.390304
     3   Atom       -0.771919     -0.777340      1.549259
     4   Atom       -0.006481      0.017727     -0.011245
 --------------------------------------------------------
                        XY            XZ            YZ
 --------------------------------------------------------
     1   Atom       -0.006353     -0.068024      0.190653
     2   Atom        0.000201      0.029186     -0.127984
     3   Atom        0.008061      0.091265      0.035563
     4   Atom        0.003872      0.001430      0.006196
 --------------------------------------------------------


 ---------------------------------------------------------------------------------
              Anisotropic Spin Dipole Couplings in Principal Axis System
 ---------------------------------------------------------------------------------

       Atom             a.u.   MegaHertz   Gauss  10(-4) cm-1        Axes

              Baa    -1.6048   -65.795   -23.477   -21.947  0.0331  0.9986 -0.0401
     1 S(33)  Bbb    -1.4962   -61.345   -21.889   -20.462  0.9993 -0.0325  0.0162
              Bcc     3.1010   127.139    45.366    42.409 -0.0148  0.0406  0.9991
 
              Baa    -0.2191    15.856     5.658     5.289  0.9331 -0.3403 -0.1162
     2 O(17)  Bbb    -0.2001    14.478     5.166     4.829  0.3568  0.9165  0.1810
              Bcc     0.4192   -30.334   -10.824   -10.118  0.0448 -0.2104  0.9766
 
              Baa    -0.7835    56.691    20.229    18.910 -0.6416  0.7669  0.0134
     3 O(17)  Bbb    -0.7699    55.712    19.879    18.583  0.7660  0.6416 -0.0400
              Bcc     1.5534  -112.402   -40.108   -37.493  0.0393  0.0154  0.9991
 
              Baa    -0.0126    -6.715    -2.396    -2.240 -0.1111 -0.1854  0.9764
     4 H(1)   Bbb    -0.0070    -3.761    -1.342    -1.255  0.9817 -0.1731  0.0789
              Bcc     0.0196    10.476     3.738     3.494  0.1544  0.9673  0.2013
 

 ---------------------------------------------------------------------------------

 1\1\ CPUSERV-QCEXNOD09\SP\UwB97XD\6-311+G(3df)\H1O2S1(2)\ROOT\21-Aug-2
 025\0\\#sp wB97XD/6-311+G(3df)\\Optimizacion del hoso\\0,2\S,0,-0.1403
 43,-0.501008,0.020808\O,0,1.268132,0.284971,-0.05254\O,0,-1.134636,0.5
 72438,-0.024537\H,0,1.120521,1.165845,0.328681\\Version=EM64L-G09RevC.
 01\State=2-A\HF=-549.2195778\S2=0.755419\S2-1=0.\S2A=0.75002\RMSD=8.36
 0e-09\Dipole=0.4509807,-0.0662681,0.2608009\Quadrupole=-2.2117941,1.97
 04847,0.2413094,2.3059312,0.5810588,0.7794283\PG=C01 [X(H1O2S1)]\\@


 WE THE UNWILLING
 LED BY THE UNQUALIFIED
 HAVE BEEN DOING THE UNBELIEVABLE SO LONG WITH SO LITTLE
 THAT WE NOW ATTEMPT THE IMPOSSIBLE WITH NOTHING.

                                    -- ANONYMOUS
 Job cpu time:  0 days  0 hours  3 minutes 32.6 seconds.
 File lengths (MBytes):  RWF=     21 Int=      0 D2E=      0 Chk=      2 Scr=      1
 Normal termination of Gaussian 09 at Thu Aug 21 00:36:00 2025.
