 Entering Gaussian System, Link 0=g09
 Initial command:
 /soft/g09.c01/g09/l1.exe /scr/macias/389564.qcexmaster_vib6_0.10/Gau-2463.inp -scrdir=/scr/macias/389564.qcexmaster_vib6_0.10/
 Entering Link 1 = /soft/g09.c01/g09/l1.exe PID=      2467.
  
 Copyright (c) 1988,1990,1992,1993,1995,1998,2003,2009,2011,
            Gaussian, Inc.  All Rights Reserved.
  
 This is part of the Gaussian(R) 09 program.  It is based on
 the Gaussian(R) 03 system (copyright 2003, Gaussian, Inc.),
 the Gaussian(R) 98 system (copyright 1998, Gaussian, Inc.),
 the Gaussian(R) 94 system (copyright 1995, Gaussian, Inc.),
 the Gaussian 92(TM) system (copyright 1992, Gaussian, Inc.),
 the Gaussian 90(TM) system (copyright 1990, Gaussian, Inc.),
 the Gaussian 88(TM) system (copyright 1988, Gaussian, Inc.),
 the Gaussian 86(TM) system (copyright 1986, Carnegie Mellon
 University), and the Gaussian 82(TM) system (copyright 1983,
 Carnegie Mellon University). Gaussian is a federally registered
 trademark of Gaussian, Inc.
  
 This software contains proprietary and confidential information,
 including trade secrets, belonging to Gaussian, Inc.
  
 This software is provided under written license and may be
 used, copied, transmitted, or stored only in accord with that
 written license.
  
 The following legend is applicable only to US Government
 contracts under FAR:
  
                    RESTRICTED RIGHTS LEGEND
  
 Use, reproduction and disclosure by the US Government is
 subject to restrictions as set forth in subparagraphs (a)
 and (c) of the Commercial Computer Software - Restricted
 Rights clause in FAR 52.227-19.
  
 Gaussian, Inc.
 340 Quinnipiac St., Bldg. 40, Wallingford CT 06492
  
  
 ---------------------------------------------------------------
 Warning -- This program may not be used in any manner that
 competes with the business of Gaussian, Inc. or will provide
 assistance to any competitor of Gaussian, Inc.  The licensee
 of this program is prohibited from giving any competitor of
 Gaussian, Inc. access to this program.  By using this program,
 the user acknowledges that Gaussian, Inc. is engaged in the
 business of creating and licensing software in the field of
 computational chemistry and represents and warrants to the
 licensee that it is not a competitor of Gaussian, Inc. and that
 it will not use this program in any manner prohibited above.
 ---------------------------------------------------------------
  

 Cite this work as:
 Gaussian 09, Revision C.01,
 M. J. Frisch, G. W. Trucks, H. B. Schlegel, G. E. Scuseria, 
 M. A. Robb, J. R. Cheeseman, G. Scalmani, V. Barone, B. Mennucci, 
 G. A. Petersson, H. Nakatsuji, M. Caricato, X. Li, H. P. Hratchian, 
 A. F. Izmaylov, J. Bloino, G. Zheng, J. L. Sonnenberg, M. Hada, 
 M. Ehara, K. Toyota, R. Fukuda, J. Hasegawa, M. Ishida, T. Nakajima, 
 Y. Honda, O. Kitao, H. Nakai, T. Vreven, J. A. Montgomery, Jr., 
 J. E. Peralta, F. Ogliaro, M. Bearpark, J. J. Heyd, E. Brothers, 
 K. N. Kudin, V. N. Staroverov, T. Keith, R. Kobayashi, J. Normand, 
 K. Raghavachari, A. Rendell, J. C. Burant, S. S. Iyengar, J. Tomasi, 
 M. Cossi, N. Rega, J. M. Millam, M. Klene, J. E. Knox, J. B. Cross, 
 V. Bakken, C. Adamo, J. Jaramillo, R. Gomperts, R. E. Stratmann, 
 O. Yazyev, A. J. Austin, R. Cammi, C. Pomelli, J. W. Ochterski, 
 R. L. Martin, K. Morokuma, V. G. Zakrzewski, G. A. Voth, 
 P. Salvador, J. J. Dannenberg, S. Dapprich, A. D. Daniels, 
 O. Farkas, J. B. Foresman, J. V. Ortiz, J. Cioslowski, 
 and D. J. Fox, Gaussian, Inc., Wallingford CT, 2010.
 
  
 -----  Compilado por  -----------------------------------------
  
  Servicio de Calculo | Servicio de Informatica U. de Valencia
     calculo@uv.es    |  E-46100 Burjassot (Valencia) SPAIN
  
 ---------------------------------------------------------------
  
 ******************************************
 Gaussian 09:  EM64L-G09RevC.01 23-Sep-2011
                21-Aug-2025 
 ******************************************
 %chk=opt_freq.chk
 %nproc=6
 Will use up to    6 processors via shared memory.
 %mem=20GB
 Default route:  CacheSize=131072
 -----------------------
 #sp wB97XD/6-311+G(3df)
 -----------------------
 1/4=131072,38=1/1;
 2/4=131072,12=2,17=6,18=5,40=1/2;
 3/4=131072,5=4,6=6,7=16,11=2,16=1,25=1,30=1,74=-58/1,2,3;
 4/4=131072/1;
 5/4=131072,5=2,38=5/2;
 6/4=131072,7=2,8=2,9=2,10=2,28=1/1;
 99/4=131072,5=1,9=1/99;
 ---------------------
 Optimizacion del hoso
 ---------------------
 Charge =  0 Multiplicity = 2
 Symbolic Z-Matrix:
 S                    -0.13884  -0.47401   0.01631 
 O                     1.31013   0.26247  -0.04304 
 O                    -1.18564   0.54544  -0.02004 
 H                     1.23252   1.07384   0.22868 
 
                          Input orientation:                          
 ---------------------------------------------------------------------
 Center     Atomic      Atomic             Coordinates (Angstroms)
 Number     Number       Type             X           Y           Z
 ---------------------------------------------------------------------
      1         16           0       -0.138843   -0.474008    0.016308
      2          8           0        1.310132    0.262471   -0.043040
      3          8           0       -1.185636    0.545438   -0.020037
      4          1           0        1.232521    1.073845    0.228681
 ---------------------------------------------------------------------
                    Distance matrix (angstroms):
                    1          2          3          4
     1  S    0.000000
     2  O    1.626485   0.000000
     3  O    1.461632   2.511863   0.000000
     4  H    2.078844   0.859176   2.487681   0.000000
 Stoichiometry    HO2S(2)
 Framework group  C1[X(HO2S)]
 Deg. of freedom     6
 Full point group                 C1      NOp   1
 Largest Abelian subgroup         C1      NOp   1
 Largest concise Abelian subgroup C1      NOp   1
                         Standard orientation:                         
 ---------------------------------------------------------------------
 Center     Atomic      Atomic             Coordinates (Angstroms)
 Number     Number       Type             X           Y           Z
 ---------------------------------------------------------------------
      1         16           0       -0.137928   -0.473026    0.013202
      2          8           0        1.309306    0.267344   -0.039870
      3          8           0       -1.187148    0.544145   -0.016256
      4          1           0        1.229589    1.076508    0.237769
 ---------------------------------------------------------------------
 Rotational constants (GHZ):     35.5233840      9.6808407      7.6270577
 Standard basis: 6-311+G(3df) (5D, 7F)
 There are   128 symmetry adapted basis functions of A   symmetry.
 Integral buffers will be    131072 words long.
 Raffenetti 2 integral format.
 Two-electron integral symmetry is turned on.
   128 basis functions,   193 primitive gaussians,   146 cartesian basis functions
    17 alpha electrons       16 beta electrons
       nuclear repulsion energy       112.1715336741 Hartrees.
 NAtoms=    4 NActive=    4 NUniq=    4 SFac= 1.00D+00 NAtFMM=   60 NAOKFM=F Big=F
 Nuclear repulsion after empirical dispersion term =      112.1712927291 Hartrees.
 One-electron integrals computed using PRISM.
 NBasis=   128 RedAO= T  NBF=   128
 NBsUse=   128 1.00D-06 NBFU=   128
 Harris functional with IExCor= 4639 diagonalized for initial guess.
 ExpMin= 4.05D-02 ExpMax= 9.34D+04 ExpMxC= 3.17D+03 IAcc=2 IRadAn=         4 AccDes= 0.00D+00
 HarFok:  IExCor= 4639 AccDes= 0.00D+00 IRadAn=         4 IDoV= 1
 ScaDFX=  1.000000  1.000000  1.000000  1.000000
 FoFCou: FMM=F IPFlag=           0 FMFlag=      100000 FMFlg1=           0
         NFxFlg=           0 DoJE=T BraDBF=F KetDBF=T FulRan=T
         Omega=  0.000000  0.000000  1.000000  0.000000  0.000000 ICntrl=     500 IOpCl=  0
         NMat0=    1 NMatS0=    1 NMatT0=    0 NMatD0=    1 NMtDS0=    0 NMtDT0=    0
         I1Cent=           4 NGrid=           0.
 Petite list used in FoFCou.
 Initial guess orbital symmetries:
 Alpha Orbitals:
       Occupied  (A) (A) (A) (A) (A) (A) (A) (A) (A) (A) (A) (A)
                 (A) (A) (A) (A) (A)
       Virtual   (A) (A) (A) (A) (A) (A) (A) (A) (A) (A) (A) (A)
                 (A) (A) (A) (A) (A) (A) (A) (A) (A) (A) (A) (A)
                 (A) (A) (A) (A) (A) (A) (A) (A) (A) (A) (A) (A)
                 (A) (A) (A) (A) (A) (A) (A) (A) (A) (A) (A) (A)
                 (A) (A) (A) (A) (A) (A) (A) (A) (A) (A) (A) (A)
                 (A) (A) (A) (A) (A) (A) (A) (A) (A) (A) (A) (A)
                 (A) (A) (A) (A) (A) (A) (A) (A) (A) (A) (A) (A)
                 (A) (A) (A) (A) (A) (A) (A) (A) (A) (A) (A) (A)
                 (A) (A) (A) (A) (A) (A) (A) (A) (A) (A) (A) (A)
                 (A) (A) (A)
 Beta  Orbitals:
       Occupied  (A) (A) (A) (A) (A) (A) (A) (A) (A) (A) (A) (A)
                 (A) (A) (A) (A)
       Virtual   (A) (A) (A) (A) (A) (A) (A) (A) (A) (A) (A) (A)
                 (A) (A) (A) (A) (A) (A) (A) (A) (A) (A) (A) (A)
                 (A) (A) (A) (A) (A) (A) (A) (A) (A) (A) (A) (A)
                 (A) (A) (A) (A) (A) (A) (A) (A) (A) (A) (A) (A)
                 (A) (A) (A) (A) (A) (A) (A) (A) (A) (A) (A) (A)
                 (A) (A) (A) (A) (A) (A) (A) (A) (A) (A) (A) (A)
                 (A) (A) (A) (A) (A) (A) (A) (A) (A) (A) (A) (A)
                 (A) (A) (A) (A) (A) (A) (A) (A) (A) (A) (A) (A)
                 (A) (A) (A) (A) (A) (A) (A) (A) (A) (A) (A) (A)
                 (A) (A) (A) (A)
 The electronic state of the initial guess is 2-A.
 Initial guess <Sx>= 0.0000 <Sy>= 0.0000 <Sz>= 0.5000 <S**2>= 0.7500 S= 0.5000
 Requested convergence on RMS density matrix=1.00D-08 within 128 cycles.
 Requested convergence on MAX density matrix=1.00D-06.
 Requested convergence on             energy=1.00D-06.
 No special actions if energy rises.
 FoFJK:  IHMeth= 1 ICntrl=     0 DoSepK=T KAlg= 1 I1Cent= 0 FoldK=F
 FoFJK:  IHMeth= 1 ICntrl=     0 DoSepK=T KAlg= 1 I1Cent= 0 FoldK=F
 FoFJK:  IHMeth= 1 ICntrl=     0 DoSepK=T KAlg= 1 I1Cent= 0 FoldK=F
 FoFJK:  IHMeth= 1 ICntrl=     0 DoSepK=T KAlg= 1 I1Cent= 0 FoldK=F
 FoFJK:  IHMeth= 1 ICntrl=     0 DoSepK=T KAlg= 1 I1Cent= 0 FoldK=F
 FoFJK:  IHMeth= 1 ICntrl=     0 DoSepK=T KAlg= 1 I1Cent= 0 FoldK=F
 FoFJK:  IHMeth= 1 ICntrl=     0 DoSepK=T KAlg= 1 I1Cent= 0 FoldK=F
 FoFJK:  IHMeth= 1 ICntrl=     0 DoSepK=T KAlg= 1 I1Cent= 0 FoldK=F
 FoFJK:  IHMeth= 1 ICntrl=     0 DoSepK=T KAlg= 1 I1Cent= 0 FoldK=F
 FoFJK:  IHMeth= 1 ICntrl=     0 DoSepK=T KAlg= 1 I1Cent= 0 FoldK=F
 FoFJK:  IHMeth= 1 ICntrl=     0 DoSepK=T KAlg= 1 I1Cent= 0 FoldK=F
 FoFJK:  IHMeth= 1 ICntrl=     0 DoSepK=T KAlg= 1 I1Cent= 0 FoldK=F
 FoFJK:  IHMeth= 1 ICntrl=     0 DoSepK=T KAlg= 1 I1Cent= 0 FoldK=F
 FoFJK:  IHMeth= 1 ICntrl=     0 DoSepK=T KAlg= 1 I1Cent= 0 FoldK=F
 FoFJK:  IHMeth= 1 ICntrl=     0 DoSepK=T KAlg= 1 I1Cent= 0 FoldK=F
 SCF Done:  E(UwB97XD) =  -549.207573856     A.U. after   15 cycles
             Convg  =    0.6875D-08             -V/T =  2.0012
 <Sx>= 0.0000 <Sy>= 0.0000 <Sz>= 0.5000 <S**2>= 0.7555 S= 0.5027
 <L.S>= 0.000000000000E+00
 Annihilation of the first spin contaminant:
 S**2 before annihilation     0.7555,   after     0.7500

 **********************************************************************

            Population analysis using the SCF density.

 **********************************************************************

 Orbital symmetries:
 Alpha Orbitals:
       Occupied  (A) (A) (A) (A) (A) (A) (A) (A) (A) (A) (A) (A)
                 (A) (A) (A) (A) (A)
       Virtual   (A) (A) (A) (A) (A) (A) (A) (A) (A) (A) (A) (A)
                 (A) (A) (A) (A) (A) (A) (A) (A) (A) (A) (A) (A)
                 (A) (A) (A) (A) (A) (A) (A) (A) (A) (A) (A) (A)
                 (A) (A) (A) (A) (A) (A) (A) (A) (A) (A) (A) (A)
                 (A) (A) (A) (A) (A) (A) (A) (A) (A) (A) (A) (A)
                 (A) (A) (A) (A) (A) (A) (A) (A) (A) (A) (A) (A)
                 (A) (A) (A) (A) (A) (A) (A) (A) (A) (A) (A) (A)
                 (A) (A) (A) (A) (A) (A) (A) (A) (A) (A) (A) (A)
                 (A) (A) (A) (A) (A) (A) (A) (A) (A) (A) (A) (A)
                 (A) (A) (A)
 Beta  Orbitals:
       Occupied  (A) (A) (A) (A) (A) (A) (A) (A) (A) (A) (A) (A)
                 (A) (A) (A) (A)
       Virtual   (A) (A) (A) (A) (A) (A) (A) (A) (A) (A) (A) (A)
                 (A) (A) (A) (A) (A) (A) (A) (A) (A) (A) (A) (A)
                 (A) (A) (A) (A) (A) (A) (A) (A) (A) (A) (A) (A)
                 (A) (A) (A) (A) (A) (A) (A) (A) (A) (A) (A) (A)
                 (A) (A) (A) (A) (A) (A) (A) (A) (A) (A) (A) (A)
                 (A) (A) (A) (A) (A) (A) (A) (A) (A) (A) (A) (A)
                 (A) (A) (A) (A) (A) (A) (A) (A) (A) (A) (A) (A)
                 (A) (A) (A) (A) (A) (A) (A) (A) (A) (A) (A) (A)
                 (A) (A) (A) (A) (A) (A) (A) (A) (A) (A) (A) (A)
                 (A) (A) (A) (A)
 The electronic state is 2-A.
 Alpha  occ. eigenvalues --  -89.15122 -19.30892 -19.28549  -8.17873  -6.12809
 Alpha  occ. eigenvalues --   -6.12562  -6.12207  -1.23973  -1.16167  -0.81660
 Alpha  occ. eigenvalues --   -0.64280  -0.57650  -0.56819  -0.50948  -0.47513
 Alpha  occ. eigenvalues --   -0.42740  -0.31181
 Alpha virt. eigenvalues --    0.05414   0.06622   0.07506   0.09345   0.11830
 Alpha virt. eigenvalues --    0.13922   0.20321   0.22962   0.24537   0.24931
 Alpha virt. eigenvalues --    0.26317   0.28223   0.30459   0.32492   0.32805
 Alpha virt. eigenvalues --    0.35500   0.36414   0.37893   0.39176   0.40332
 Alpha virt. eigenvalues --    0.41234   0.50648   0.64307   0.68265   0.78089
 Alpha virt. eigenvalues --    0.81056   0.86708   0.87772   0.93804   0.95891
 Alpha virt. eigenvalues --    0.96554   0.97434   0.99670   1.02352   1.05399
 Alpha virt. eigenvalues --    1.08925   1.10154   1.13007   1.13779   1.17095
 Alpha virt. eigenvalues --    1.21729   1.27880   1.33221   1.37873   1.40102
 Alpha virt. eigenvalues --    1.44707   1.66746   1.68024   1.74376   1.81486
 Alpha virt. eigenvalues --    1.92701   2.01635   2.07991   2.08699   2.12623
 Alpha virt. eigenvalues --    2.20804   2.31278   2.36313   2.46416   3.35965
 Alpha virt. eigenvalues --    3.41539   3.44777   3.47081   3.49638   3.55189
 Alpha virt. eigenvalues --    3.56162   3.65673   3.70279   3.84765   4.52897
 Alpha virt. eigenvalues --    4.56745   4.61400   4.70169   4.90553   4.96023
 Alpha virt. eigenvalues --    5.02520   5.03356   5.03614   5.06854   5.08958
 Alpha virt. eigenvalues --    5.09680   5.11318   5.16101   5.23693   5.24321
 Alpha virt. eigenvalues --    5.42679   5.46770   5.53081   5.59261   5.67814
 Alpha virt. eigenvalues --    5.84440   5.92291   6.11071   6.58516   8.77292
 Alpha virt. eigenvalues --   14.31916  14.35400  14.36937  14.39127  14.41313
 Alpha virt. eigenvalues --   14.45523  14.47716  14.54944  14.66708  14.70743
 Alpha virt. eigenvalues --   17.35995  17.61408  17.89812  50.03700  50.10894
 Alpha virt. eigenvalues --  189.82044
  Beta  occ. eigenvalues --  -89.14737 -19.30658 -19.27654  -8.17530  -6.12581
  Beta  occ. eigenvalues --   -6.11999  -6.11324  -1.23025  -1.14537  -0.79528
  Beta  occ. eigenvalues --   -0.62820  -0.56843  -0.53431  -0.48911  -0.43785
  Beta  occ. eigenvalues --   -0.41514
  Beta virt. eigenvalues --   -0.04052   0.05951   0.06979   0.07969   0.09945
  Beta virt. eigenvalues --    0.12609   0.14866   0.20450   0.23238   0.24867
  Beta virt. eigenvalues --    0.25157   0.26781   0.28581   0.30745   0.32694
  Beta virt. eigenvalues --    0.33942   0.35753   0.36915   0.38552   0.40501
  Beta virt. eigenvalues --    0.40859   0.41982   0.51254   0.64530   0.68763
  Beta virt. eigenvalues --    0.78622   0.81356   0.87136   0.88605   0.94417
  Beta virt. eigenvalues --    0.96263   0.97578   0.98459   1.00435   1.03219
  Beta virt. eigenvalues --    1.06139   1.09752   1.12148   1.13502   1.14146
  Beta virt. eigenvalues --    1.17887   1.23012   1.28386   1.34582   1.38665
  Beta virt. eigenvalues --    1.40468   1.45080   1.69796   1.70048   1.76003
  Beta virt. eigenvalues --    1.83030   1.93501   2.03061   2.08723   2.11037
  Beta virt. eigenvalues --    2.12955   2.21307   2.31762   2.37255   2.46875
  Beta virt. eigenvalues --    3.36787   3.42913   3.46953   3.48324   3.51068
  Beta virt. eigenvalues --    3.56311   3.58233   3.66358   3.71489   3.85041
  Beta virt. eigenvalues --    4.53431   4.56892   4.62277   4.70655   4.91131
  Beta virt. eigenvalues --    4.96544   5.03032   5.03955   5.04663   5.08293
  Beta virt. eigenvalues --    5.11552   5.12812   5.13202   5.16965   5.24602
  Beta virt. eigenvalues --    5.25678   5.43237   5.47306   5.53853   5.59990
  Beta virt. eigenvalues --    5.68997   5.86149   5.92768   6.11365   6.58917
  Beta virt. eigenvalues --    8.77656  14.33163  14.37682  14.40309  14.40923
  Beta virt. eigenvalues --   14.43524  14.48480  14.49405  14.56107  14.67053
  Beta virt. eigenvalues --   14.72783  17.37387  17.61698  17.90133  50.03924
  Beta virt. eigenvalues --   50.11681 189.82348
          Condensed to atoms (all electrons):
              1          2          3          4
     1  S   15.365680  -0.025983   0.138942   0.012210
     2  O   -0.025983   8.438890   0.005090   0.219523
     3  O    0.138942   0.005090   8.232965  -0.001375
     4  H    0.012210   0.219523  -0.001375   0.265654
 Mulliken atomic charges:
              1
     1  S    0.509151
     2  O   -0.637519
     3  O   -0.375621
     4  H    0.503989
 Sum of Mulliken atomic charges =   0.00000
 Mulliken charges with hydrogens summed into heavy atoms:
              1
     1  S    0.509151
     2  O   -0.133530
     3  O   -0.375621
 Sum of Mulliken charges with hydrogens summed into heavy atoms =   0.00000
          Atomic-Atomic Spin Densities.
              1          2          3          4
     1  S    0.939383  -0.102188  -0.197282   0.000717
     2  O   -0.102188   0.144711   0.018720  -0.004928
     3  O   -0.197282   0.018720   0.482036  -0.000723
     4  H    0.000717  -0.004928  -0.000723   0.005237
 Mulliken atomic spin densities:
              1
     1  S    0.640630
     2  O    0.056315
     3  O    0.302751
     4  H    0.000303
 Sum of Mulliken atomic spin densities =   1.00000
 Electronic spatial extent (au):  <R**2>=            176.4457
 Charge=              0.0000 electrons
 Dipole moment (field-independent basis, Debye):
    X=              1.2251    Y=             -0.0687    Z=              0.4983  Tot=              1.3244
 Quadrupole moment (field-independent basis, Debye-Ang):
   XX=            -26.5203   YY=            -21.3419   ZZ=            -23.4708
   XY=              3.1843   XZ=              0.6716   YZ=              0.7557
 Traceless Quadrupole moment (field-independent basis, Debye-Ang):
   XX=             -2.7427   YY=              2.4358   ZZ=              0.3069
   XY=              3.1843   XZ=              0.6716   YZ=              0.7557
 Octapole moment (field-independent basis, Debye-Ang**2):
  XXX=              1.7308  YYY=              4.6205  ZZZ=              0.0276  XYY=              4.1501
  XXY=              0.9468  XXZ=              0.8334  XZZ=              0.2423  YZZ=              1.2427
  YYZ=              0.8244  XYZ=              0.9160
 Hexadecapole moment (field-independent basis, Debye-Ang**3):
 XXXX=           -139.7956 YYYY=            -51.6570 ZZZZ=            -24.6339 XXXY=              6.0088
 XXXZ=              1.2515 YYYX=              5.5153 YYYZ=              1.1416 ZZZX=              0.4123
 ZZZY=              0.5804 XXYY=            -26.7684 XXZZ=            -26.5731 YYZZ=            -13.6287
 XXYZ=              1.2925 YYXZ=              1.0291 ZZXY=              0.4935
 N-N= 1.121712927291D+02 E-N=-2.284170658389D+03  KE= 8.213968141897D+02
                          Isotropic Fermi Contact Couplings
        Atom                 a.u.       MegaHertz       Gauss      10(-4) cm-1
     1  S(33)              0.10289      35.33893      12.60981      11.78780
     2  O(17)              0.01908     -11.56358      -4.12617      -3.85720
     3  O(17)              0.05258     -31.87590     -11.37411     -10.63266
     4  H(1)               0.00035       1.57844       0.56323       0.52651
 --------------------------------------------------------
       Center         ----  Spin Dipole Couplings  ----
                      3XX-RR        3YY-RR        3ZZ-RR
 --------------------------------------------------------
     1   Atom       -1.506089     -1.619137      3.125226
     2   Atom       -0.231171     -0.200067      0.431238
     3   Atom       -0.780576     -0.784624      1.565200
     4   Atom       -0.012564      0.023807     -0.011243
 --------------------------------------------------------
                        XY            XZ            YZ
 --------------------------------------------------------
     1   Atom       -0.003606     -0.054531      0.150178
     2   Atom        0.007555      0.009132     -0.102184
     3   Atom        0.005669      0.085106      0.037719
     4   Atom        0.004468      0.001405      0.004698
 --------------------------------------------------------


 ---------------------------------------------------------------------------------
              Anisotropic Spin Dipole Couplings in Principal Axis System
 ---------------------------------------------------------------------------------

       Atom             a.u.   MegaHertz   Gauss  10(-4) cm-1        Axes

              Baa    -1.6239   -66.579   -23.757   -22.208  0.0160  0.9994 -0.0314
     1 S(33)  Bbb    -1.5067   -61.773   -22.042   -20.605  0.9998 -0.0157  0.0123
              Bcc     3.1306   128.352    45.799    42.814 -0.0118  0.0316  0.9994
 
              Baa    -0.2354    17.032     6.077     5.681  0.9073 -0.4136 -0.0758
     2 O(17)  Bbb    -0.2121    15.346     5.476     5.119  0.4203  0.8971  0.1365
              Bcc     0.4475   -32.378   -11.553   -10.800  0.0116 -0.1557  0.9877
 
              Baa    -0.7888    57.078    20.367    19.039 -0.6403  0.7680  0.0108
     3 O(17)  Bbb    -0.7801    56.446    20.141    18.828  0.7673  0.6402 -0.0381
              Bcc     1.5689  -113.524   -40.508   -37.868  0.0362  0.0161  0.9992
 
              Baa    -0.0135    -7.214    -2.574    -2.406  0.8934 -0.0508 -0.4464
     4 H(1)   Bbb    -0.0115    -6.121    -2.184    -2.042  0.4324 -0.1726  0.8850
              Bcc     0.0250    13.335     4.758     4.448  0.1220  0.9837  0.1323
 

 ---------------------------------------------------------------------------------

 1\1\ CPUSERV-QCEXNOD03\SP\UwB97XD\6-311+G(3df)\H1O2S1(2)\ROOT\21-Aug-2
 025\0\\#sp wB97XD/6-311+G(3df)\\Optimizacion del hoso\\0,2\S,0,-0.1388
 43,-0.474008,0.016308\O,0,1.310132,0.262471,-0.04304\O,0,-1.185636,0.5
 45438,-0.020037\H,0,1.232521,1.073845,0.228681\\Version=EM64L-G09RevC.
 01\State=2-A\HF=-549.2075739\S2=0.755503\S2-1=0.\S2A=0.750021\RMSD=6.8
 75e-09\Dipole=0.4820381,-0.026761,0.1959819\Quadrupole=-2.0271206,1.80
 76961,0.2194244,2.3805866,0.4844676,0.5476454\PG=C01 [X(H1O2S1)]\\@


0EVERYBODY IS IGNORANT, ONLY ON DIFFERENT SUBJECTS.
0          WILL ROGERS
 Job cpu time:  0 days  0 hours  3 minutes 14.0 seconds.
 File lengths (MBytes):  RWF=     21 Int=      0 D2E=      0 Chk=      2 Scr=      1
 Normal termination of Gaussian 09 at Thu Aug 21 00:36:09 2025.
