 Entering Gaussian System, Link 0=g09
 Initial command:
 /soft/g09.c01/g09/l1.exe /scr/macias/389600.qcexmaster_vib4_0.10/Gau-25774.inp -scrdir=/scr/macias/389600.qcexmaster_vib4_0.10/
 Entering Link 1 = /soft/g09.c01/g09/l1.exe PID=     25780.
  
 Copyright (c) 1988,1990,1992,1993,1995,1998,2003,2009,2011,
            Gaussian, Inc.  All Rights Reserved.
  
 This is part of the Gaussian(R) 09 program.  It is based on
 the Gaussian(R) 03 system (copyright 2003, Gaussian, Inc.),
 the Gaussian(R) 98 system (copyright 1998, Gaussian, Inc.),
 the Gaussian(R) 94 system (copyright 1995, Gaussian, Inc.),
 the Gaussian 92(TM) system (copyright 1992, Gaussian, Inc.),
 the Gaussian 90(TM) system (copyright 1990, Gaussian, Inc.),
 the Gaussian 88(TM) system (copyright 1988, Gaussian, Inc.),
 the Gaussian 86(TM) system (copyright 1986, Carnegie Mellon
 University), and the Gaussian 82(TM) system (copyright 1983,
 Carnegie Mellon University). Gaussian is a federally registered
 trademark of Gaussian, Inc.
  
 This software contains proprietary and confidential information,
 including trade secrets, belonging to Gaussian, Inc.
  
 This software is provided under written license and may be
 used, copied, transmitted, or stored only in accord with that
 written license.
  
 The following legend is applicable only to US Government
 contracts under FAR:
  
                    RESTRICTED RIGHTS LEGEND
  
 Use, reproduction and disclosure by the US Government is
 subject to restrictions as set forth in subparagraphs (a)
 and (c) of the Commercial Computer Software - Restricted
 Rights clause in FAR 52.227-19.
  
 Gaussian, Inc.
 340 Quinnipiac St., Bldg. 40, Wallingford CT 06492
  
  
 ---------------------------------------------------------------
 Warning -- This program may not be used in any manner that
 competes with the business of Gaussian, Inc. or will provide
 assistance to any competitor of Gaussian, Inc.  The licensee
 of this program is prohibited from giving any competitor of
 Gaussian, Inc. access to this program.  By using this program,
 the user acknowledges that Gaussian, Inc. is engaged in the
 business of creating and licensing software in the field of
 computational chemistry and represents and warrants to the
 licensee that it is not a competitor of Gaussian, Inc. and that
 it will not use this program in any manner prohibited above.
 ---------------------------------------------------------------
  

 Cite this work as:
 Gaussian 09, Revision C.01,
 M. J. Frisch, G. W. Trucks, H. B. Schlegel, G. E. Scuseria, 
 M. A. Robb, J. R. Cheeseman, G. Scalmani, V. Barone, B. Mennucci, 
 G. A. Petersson, H. Nakatsuji, M. Caricato, X. Li, H. P. Hratchian, 
 A. F. Izmaylov, J. Bloino, G. Zheng, J. L. Sonnenberg, M. Hada, 
 M. Ehara, K. Toyota, R. Fukuda, J. Hasegawa, M. Ishida, T. Nakajima, 
 Y. Honda, O. Kitao, H. Nakai, T. Vreven, J. A. Montgomery, Jr., 
 J. E. Peralta, F. Ogliaro, M. Bearpark, J. J. Heyd, E. Brothers, 
 K. N. Kudin, V. N. Staroverov, T. Keith, R. Kobayashi, J. Normand, 
 K. Raghavachari, A. Rendell, J. C. Burant, S. S. Iyengar, J. Tomasi, 
 M. Cossi, N. Rega, J. M. Millam, M. Klene, J. E. Knox, J. B. Cross, 
 V. Bakken, C. Adamo, J. Jaramillo, R. Gomperts, R. E. Stratmann, 
 O. Yazyev, A. J. Austin, R. Cammi, C. Pomelli, J. W. Ochterski, 
 R. L. Martin, K. Morokuma, V. G. Zakrzewski, G. A. Voth, 
 P. Salvador, J. J. Dannenberg, S. Dapprich, A. D. Daniels, 
 O. Farkas, J. B. Foresman, J. V. Ortiz, J. Cioslowski, 
 and D. J. Fox, Gaussian, Inc., Wallingford CT, 2010.
 
  
 -----  Compilado por  -----------------------------------------
  
  Servicio de Calculo | Servicio de Informatica U. de Valencia
     calculo@uv.es    |  E-46100 Burjassot (Valencia) SPAIN
  
 ---------------------------------------------------------------
  
 ******************************************
 Gaussian 09:  EM64L-G09RevC.01 23-Sep-2011
                20-Aug-2025 
 ******************************************
 %chk=opt_freq.chk
 %nproc=6
 Will use up to    6 processors via shared memory.
 %mem=20GB
 Default route:  CacheSize=131072
 -----------------------
 #sp wB97XD/6-311+G(3df)
 -----------------------
 1/4=131072,38=1/1;
 2/4=131072,12=2,17=6,18=5,40=1/2;
 3/4=131072,5=4,6=6,7=16,11=2,16=1,25=1,30=1,74=-58/1,2,3;
 4/4=131072/1;
 5/4=131072,5=2,38=5/2;
 6/4=131072,7=2,8=2,9=2,10=2,28=1/1;
 99/4=131072,5=1,9=1/99;
 ---------------------
 Optimizacion del hoso
 ---------------------
 Charge =  0 Multiplicity = 2
 Symbolic Z-Matrix:
 S                    -0.13484  -0.47201   0.01731 
 O                     1.31513   0.25047  -0.04704 
 O                    -1.19264   0.54844  -0.02004 
 H                     1.12952   1.14985   0.27668 
 
                          Input orientation:                          
 ---------------------------------------------------------------------
 Center     Atomic      Atomic             Coordinates (Angstroms)
 Number     Number       Type             X           Y           Z
 ---------------------------------------------------------------------
      1         16           0       -0.134843   -0.472008    0.017308
      2          8           0        1.315132    0.250471   -0.047040
      3          8           0       -1.192636    0.548438   -0.020037
      4          1           0        1.129521    1.149845    0.276681
 ---------------------------------------------------------------------
                    Distance matrix (angstroms):
                    1          2          3          4
     1  S    0.000000
     2  O    1.621279   0.000000
     3  O    1.470249   2.525552   0.000000
     4  H    2.072751   0.973715   2.417053   0.000000
 Stoichiometry    HO2S(2)
 Framework group  C1[X(HO2S)]
 Deg. of freedom     6
 Full point group                 C1      NOp   1
 Largest Abelian subgroup         C1      NOp   1
 Largest concise Abelian subgroup C1      NOp   1
                         Standard orientation:                         
 ---------------------------------------------------------------------
 Center     Atomic      Atomic             Coordinates (Angstroms)
 Number     Number       Type             X           Y           Z
 ---------------------------------------------------------------------
      1         16           0       -0.126429   -0.473581    0.016956
      2          8           0        1.312791    0.270183   -0.046318
      3          8           0       -1.199130    0.531115   -0.022172
      4          1           0        1.113577    1.166923    0.276625
 ---------------------------------------------------------------------
 Rotational constants (GHZ):     35.3834206      9.6314766      7.5974792
 Standard basis: 6-311+G(3df) (5D, 7F)
 There are   128 symmetry adapted basis functions of A   symmetry.
 Integral buffers will be    131072 words long.
 Raffenetti 2 integral format.
 Two-electron integral symmetry is turned on.
   128 basis functions,   193 primitive gaussians,   146 cartesian basis functions
    17 alpha electrons       16 beta electrons
       nuclear repulsion energy       111.4426694546 Hartrees.
 NAtoms=    4 NActive=    4 NUniq=    4 SFac= 1.00D+00 NAtFMM=   60 NAOKFM=F Big=F
 Nuclear repulsion after empirical dispersion term =      111.4424383024 Hartrees.
 One-electron integrals computed using PRISM.
 NBasis=   128 RedAO= T  NBF=   128
 NBsUse=   128 1.00D-06 NBFU=   128
 Harris functional with IExCor= 4639 diagonalized for initial guess.
 ExpMin= 4.05D-02 ExpMax= 9.34D+04 ExpMxC= 3.17D+03 IAcc=2 IRadAn=         4 AccDes= 0.00D+00
 HarFok:  IExCor= 4639 AccDes= 0.00D+00 IRadAn=         4 IDoV= 1
 ScaDFX=  1.000000  1.000000  1.000000  1.000000
 FoFCou: FMM=F IPFlag=           0 FMFlag=      100000 FMFlg1=           0
         NFxFlg=           0 DoJE=T BraDBF=F KetDBF=T FulRan=T
         Omega=  0.000000  0.000000  1.000000  0.000000  0.000000 ICntrl=     500 IOpCl=  0
         NMat0=    1 NMatS0=    1 NMatT0=    0 NMatD0=    1 NMtDS0=    0 NMtDT0=    0
         I1Cent=           4 NGrid=           0.
 Petite list used in FoFCou.
 Initial guess orbital symmetries:
 Alpha Orbitals:
       Occupied  (A) (A) (A) (A) (A) (A) (A) (A) (A) (A) (A) (A)
                 (A) (A) (A) (A) (A)
       Virtual   (A) (A) (A) (A) (A) (A) (A) (A) (A) (A) (A) (A)
                 (A) (A) (A) (A) (A) (A) (A) (A) (A) (A) (A) (A)
                 (A) (A) (A) (A) (A) (A) (A) (A) (A) (A) (A) (A)
                 (A) (A) (A) (A) (A) (A) (A) (A) (A) (A) (A) (A)
                 (A) (A) (A) (A) (A) (A) (A) (A) (A) (A) (A) (A)
                 (A) (A) (A) (A) (A) (A) (A) (A) (A) (A) (A) (A)
                 (A) (A) (A) (A) (A) (A) (A) (A) (A) (A) (A) (A)
                 (A) (A) (A) (A) (A) (A) (A) (A) (A) (A) (A) (A)
                 (A) (A) (A) (A) (A) (A) (A) (A) (A) (A) (A) (A)
                 (A) (A) (A)
 Beta  Orbitals:
       Occupied  (A) (A) (A) (A) (A) (A) (A) (A) (A) (A) (A) (A)
                 (A) (A) (A) (A)
       Virtual   (A) (A) (A) (A) (A) (A) (A) (A) (A) (A) (A) (A)
                 (A) (A) (A) (A) (A) (A) (A) (A) (A) (A) (A) (A)
                 (A) (A) (A) (A) (A) (A) (A) (A) (A) (A) (A) (A)
                 (A) (A) (A) (A) (A) (A) (A) (A) (A) (A) (A) (A)
                 (A) (A) (A) (A) (A) (A) (A) (A) (A) (A) (A) (A)
                 (A) (A) (A) (A) (A) (A) (A) (A) (A) (A) (A) (A)
                 (A) (A) (A) (A) (A) (A) (A) (A) (A) (A) (A) (A)
                 (A) (A) (A) (A) (A) (A) (A) (A) (A) (A) (A) (A)
                 (A) (A) (A) (A) (A) (A) (A) (A) (A) (A) (A) (A)
                 (A) (A) (A) (A)
 The electronic state of the initial guess is 2-A.
 Initial guess <Sx>= 0.0000 <Sy>= 0.0000 <Sz>= 0.5000 <S**2>= 0.7500 S= 0.5000
 Requested convergence on RMS density matrix=1.00D-08 within 128 cycles.
 Requested convergence on MAX density matrix=1.00D-06.
 Requested convergence on             energy=1.00D-06.
 No special actions if energy rises.
 FoFJK:  IHMeth= 1 ICntrl=     0 DoSepK=T KAlg= 1 I1Cent= 0 FoldK=F
 FoFJK:  IHMeth= 1 ICntrl=     0 DoSepK=T KAlg= 1 I1Cent= 0 FoldK=F
 FoFJK:  IHMeth= 1 ICntrl=     0 DoSepK=T KAlg= 1 I1Cent= 0 FoldK=F
 FoFJK:  IHMeth= 1 ICntrl=     0 DoSepK=T KAlg= 1 I1Cent= 0 FoldK=F
 FoFJK:  IHMeth= 1 ICntrl=     0 DoSepK=T KAlg= 1 I1Cent= 0 FoldK=F
 FoFJK:  IHMeth= 1 ICntrl=     0 DoSepK=T KAlg= 1 I1Cent= 0 FoldK=F
 FoFJK:  IHMeth= 1 ICntrl=     0 DoSepK=T KAlg= 1 I1Cent= 0 FoldK=F
 FoFJK:  IHMeth= 1 ICntrl=     0 DoSepK=T KAlg= 1 I1Cent= 0 FoldK=F
 FoFJK:  IHMeth= 1 ICntrl=     0 DoSepK=T KAlg= 1 I1Cent= 0 FoldK=F
 FoFJK:  IHMeth= 1 ICntrl=     0 DoSepK=T KAlg= 1 I1Cent= 0 FoldK=F
 FoFJK:  IHMeth= 1 ICntrl=     0 DoSepK=T KAlg= 1 I1Cent= 0 FoldK=F
 FoFJK:  IHMeth= 1 ICntrl=     0 DoSepK=T KAlg= 1 I1Cent= 0 FoldK=F
 FoFJK:  IHMeth= 1 ICntrl=     0 DoSepK=T KAlg= 1 I1Cent= 0 FoldK=F
 FoFJK:  IHMeth= 1 ICntrl=     0 DoSepK=T KAlg= 1 I1Cent= 0 FoldK=F
 FoFJK:  IHMeth= 1 ICntrl=     0 DoSepK=T KAlg= 1 I1Cent= 0 FoldK=F
 SCF Done:  E(UwB97XD) =  -549.220165027     A.U. after   15 cycles
             Convg  =    0.6750D-08             -V/T =  2.0017
 <Sx>= 0.0000 <Sy>= 0.0000 <Sz>= 0.5000 <S**2>= 0.7555 S= 0.5028
 <L.S>= 0.000000000000E+00
 Annihilation of the first spin contaminant:
 S**2 before annihilation     0.7555,   after     0.7500

 **********************************************************************

            Population analysis using the SCF density.

 **********************************************************************

 Orbital symmetries:
 Alpha Orbitals:
       Occupied  (A) (A) (A) (A) (A) (A) (A) (A) (A) (A) (A) (A)
                 (A) (A) (A) (A) (A)
       Virtual   (A) (A) (A) (A) (A) (A) (A) (A) (A) (A) (A) (A)
                 (A) (A) (A) (A) (A) (A) (A) (A) (A) (A) (A) (A)
                 (A) (A) (A) (A) (A) (A) (A) (A) (A) (A) (A) (A)
                 (A) (A) (A) (A) (A) (A) (A) (A) (A) (A) (A) (A)
                 (A) (A) (A) (A) (A) (A) (A) (A) (A) (A) (A) (A)
                 (A) (A) (A) (A) (A) (A) (A) (A) (A) (A) (A) (A)
                 (A) (A) (A) (A) (A) (A) (A) (A) (A) (A) (A) (A)
                 (A) (A) (A) (A) (A) (A) (A) (A) (A) (A) (A) (A)
                 (A) (A) (A) (A) (A) (A) (A) (A) (A) (A) (A) (A)
                 (A) (A) (A)
 Beta  Orbitals:
       Occupied  (A) (A) (A) (A) (A) (A) (A) (A) (A) (A) (A) (A)
                 (A) (A) (A) (A)
       Virtual   (A) (A) (A) (A) (A) (A) (A) (A) (A) (A) (A) (A)
                 (A) (A) (A) (A) (A) (A) (A) (A) (A) (A) (A) (A)
                 (A) (A) (A) (A) (A) (A) (A) (A) (A) (A) (A) (A)
                 (A) (A) (A) (A) (A) (A) (A) (A) (A) (A) (A) (A)
                 (A) (A) (A) (A) (A) (A) (A) (A) (A) (A) (A) (A)
                 (A) (A) (A) (A) (A) (A) (A) (A) (A) (A) (A) (A)
                 (A) (A) (A) (A) (A) (A) (A) (A) (A) (A) (A) (A)
                 (A) (A) (A) (A) (A) (A) (A) (A) (A) (A) (A) (A)
                 (A) (A) (A) (A) (A) (A) (A) (A) (A) (A) (A) (A)
                 (A) (A) (A) (A)
 The electronic state is 2-A.
 Alpha  occ. eigenvalues --  -89.14952 -19.32318 -19.28526  -8.17714  -6.12633
 Alpha  occ. eigenvalues --   -6.12410  -6.12056  -1.22804  -1.14983  -0.79649
 Alpha  occ. eigenvalues --   -0.63424  -0.57820  -0.56709  -0.50754  -0.47318
 Alpha  occ. eigenvalues --   -0.42586  -0.31092
 Alpha virt. eigenvalues --    0.05053   0.06808   0.07505   0.09323   0.11526
 Alpha virt. eigenvalues --    0.13370   0.18990   0.22223   0.24401   0.24774
 Alpha virt. eigenvalues --    0.26237   0.27848   0.30448   0.32368   0.32808
 Alpha virt. eigenvalues --    0.35670   0.36462   0.37743   0.38925   0.40285
 Alpha virt. eigenvalues --    0.40978   0.50471   0.56376   0.67947   0.78095
 Alpha virt. eigenvalues --    0.81453   0.87154   0.87734   0.93749   0.95809
 Alpha virt. eigenvalues --    0.97005   0.97440   1.00286   1.02630   1.05747
 Alpha virt. eigenvalues --    1.08966   1.10091   1.11089   1.13848   1.17190
 Alpha virt. eigenvalues --    1.22200   1.28954   1.32950   1.37724   1.38630
 Alpha virt. eigenvalues --    1.43650   1.66873   1.68222   1.74116   1.79826
 Alpha virt. eigenvalues --    1.91734   2.01440   2.07412   2.08670   2.12273
 Alpha virt. eigenvalues --    2.20454   2.31156   2.36030   2.48129   3.36914
 Alpha virt. eigenvalues --    3.42043   3.45094   3.47532   3.49909   3.55313
 Alpha virt. eigenvalues --    3.56113   3.62916   3.69859   3.70798   4.53338
 Alpha virt. eigenvalues --    4.57387   4.60972   4.71159   4.90292   4.98391
 Alpha virt. eigenvalues --    5.03002   5.03615   5.04023   5.07120   5.08915
 Alpha virt. eigenvalues --    5.09700   5.11107   5.16306   5.23276   5.24826
 Alpha virt. eigenvalues --    5.40588   5.44832   5.53522   5.57183   5.65436
 Alpha virt. eigenvalues --    5.72271   5.84407   5.98987   6.57968   8.76023
 Alpha virt. eigenvalues --   14.31843  14.35548  14.36921  14.38945  14.41182
 Alpha virt. eigenvalues --   14.44372  14.45821  14.48838  14.62471  14.70510
 Alpha virt. eigenvalues --   17.36090  17.61427  17.88386  50.02309  50.10653
 Alpha virt. eigenvalues --  189.79958
  Beta  occ. eigenvalues --  -89.14565 -19.32070 -19.27639  -8.17368  -6.12403
  Beta  occ. eigenvalues --   -6.11848  -6.11166  -1.21730  -1.13436  -0.77294
  Beta  occ. eigenvalues --   -0.62209  -0.57049  -0.53346  -0.48679  -0.43523
  Beta  occ. eigenvalues --   -0.41346
  Beta virt. eigenvalues --   -0.04023   0.05494   0.07168   0.07970   0.09913
  Beta virt. eigenvalues --    0.12583   0.13973   0.19333   0.22422   0.24688
  Beta virt. eigenvalues --    0.24999   0.26624   0.28287   0.30722   0.32580
  Beta virt. eigenvalues --    0.33912   0.35941   0.36988   0.38454   0.40203
  Beta virt. eigenvalues --    0.40797   0.41762   0.51065   0.56598   0.68461
  Beta virt. eigenvalues --    0.78656   0.81713   0.87963   0.88213   0.94442
  Beta virt. eigenvalues --    0.96155   0.97852   0.98546   1.01273   1.03254
  Beta virt. eigenvalues --    1.06462   1.09968   1.11131   1.12471   1.14198
  Beta virt. eigenvalues --    1.18056   1.23441   1.29511   1.34069   1.38310
  Beta virt. eigenvalues --    1.39370   1.43995   1.70060   1.70158   1.75742
  Beta virt. eigenvalues --    1.81386   1.92527   2.02764   2.08057   2.11002
  Beta virt. eigenvalues --    2.12825   2.20905   2.31664   2.36992   2.48519
  Beta virt. eigenvalues --    3.37794   3.43477   3.47475   3.48514   3.51302
  Beta virt. eigenvalues --    3.56814   3.57788   3.63580   3.71048   3.71176
  Beta virt. eigenvalues --    4.53883   4.57560   4.61826   4.71629   4.90879
  Beta virt. eigenvalues --    4.98959   5.03675   5.04421   5.04765   5.08444
  Beta virt. eigenvalues --    5.11655   5.12575   5.13126   5.17088   5.24242
  Beta virt. eigenvalues --    5.26098   5.41205   5.45360   5.54292   5.57955
  Beta virt. eigenvalues --    5.66371   5.72832   5.86058   5.99504   6.58378
  Beta virt. eigenvalues --    8.76384  14.33110  14.37827  14.39935  14.41042
  Beta virt. eigenvalues --   14.43405  14.45616  14.48874  14.50158  14.63063
  Beta virt. eigenvalues --   14.72528  17.37486  17.61715  17.88707  50.02551
  Beta virt. eigenvalues --   50.11433 189.80264
          Condensed to atoms (all electrons):
              1          2          3          4
     1  S   15.371249  -0.026895   0.141067   0.010408
     2  O   -0.026895   8.425667   0.005723   0.209029
     3  O    0.141067   0.005723   8.240120   0.000195
     4  H    0.010408   0.209029   0.000195   0.283910
 Mulliken atomic charges:
              1
     1  S    0.504171
     2  O   -0.613524
     3  O   -0.387105
     4  H    0.496458
 Sum of Mulliken atomic charges =   0.00000
 Mulliken charges with hydrogens summed into heavy atoms:
              1
     1  S    0.504171
     2  O   -0.117066
     3  O   -0.387105
 Sum of Mulliken charges with hydrogens summed into heavy atoms =   0.00000
          Atomic-Atomic Spin Densities.
              1          2          3          4
     1  S    0.942496  -0.106057  -0.195127  -0.001040
     2  O   -0.106057   0.150643   0.018717  -0.004341
     3  O   -0.195127   0.018717   0.476276  -0.000291
     4  H   -0.001040  -0.004341  -0.000291   0.006864
 Mulliken atomic spin densities:
              1
     1  S    0.640272
     2  O    0.058962
     3  O    0.299574
     4  H    0.001192
 Sum of Mulliken atomic spin densities =   1.00000
 Electronic spatial extent (au):  <R**2>=            177.1793
 Charge=              0.0000 electrons
 Dipole moment (field-independent basis, Debye):
    X=              1.2316    Y=              0.0536    Z=              0.5503  Tot=              1.3500
 Quadrupole moment (field-independent basis, Debye-Ang):
   XX=            -27.0008   YY=            -21.1579   ZZ=            -23.5808
   XY=              2.9790   XZ=              0.6314   YZ=              0.8902
 Traceless Quadrupole moment (field-independent basis, Debye-Ang):
   XX=             -3.0876   YY=              2.7552   ZZ=              0.3324
   XY=              2.9790   XZ=              0.6314   YZ=              0.8902
 Octapole moment (field-independent basis, Debye-Ang**2):
  XXX=              1.0618  YYY=              5.1150  ZZZ=             -0.0358  XYY=              4.1309
  XXY=              0.2893  XXZ=              0.6815  XZZ=              0.1895  YZZ=              1.2074
  YYZ=              1.0506  XYZ=              0.9945
 Hexadecapole moment (field-independent basis, Debye-Ang**3):
 XXXX=           -141.7832 YYYY=            -51.5922 ZZZZ=            -24.9694 XXXY=              4.3864
 XXXZ=              0.8339 YYYX=              5.5659 YYYZ=              1.4647 ZZZX=              0.3302
 ZZZY=              0.6160 XXYY=            -27.5117 XXZZ=            -26.8324 YYZZ=            -13.7637
 XXYZ=              1.2692 YYXZ=              1.1580 ZZXY=              0.4249
 N-N= 1.114424383024D+02 E-N=-2.281847862707D+03  KE= 8.210154179184D+02
                          Isotropic Fermi Contact Couplings
        Atom                 a.u.       MegaHertz       Gauss      10(-4) cm-1
     1  S(33)              0.10539      36.20005      12.91708      12.07504
     2  O(17)              0.02071     -12.55361      -4.47944      -4.18743
     3  O(17)              0.05195     -31.49469     -11.23809     -10.50550
     4  H(1)               0.00072       3.21178       1.14604       1.07134
 --------------------------------------------------------
       Center         ----  Spin Dipole Couplings  ----
                      3XX-RR        3YY-RR        3ZZ-RR
 --------------------------------------------------------
     1   Atom       -1.512419     -1.619683      3.132102
     2   Atom       -0.242847     -0.207091      0.449938
     3   Atom       -0.772464     -0.774085      1.546548
     4   Atom       -0.007532      0.019893     -0.012360
 --------------------------------------------------------
                        XY            XZ            YZ
 --------------------------------------------------------
     1   Atom       -0.000737     -0.030219      0.221295
     2   Atom        0.005447      0.019064     -0.114737
     3   Atom        0.006366      0.095488      0.054454
     4   Atom        0.001943      0.000763      0.005318
 --------------------------------------------------------


 ---------------------------------------------------------------------------------
              Anisotropic Spin Dipole Couplings in Principal Axis System
 ---------------------------------------------------------------------------------

       Atom             a.u.   MegaHertz   Gauss  10(-4) cm-1        Axes

              Baa    -1.6300   -66.827   -23.846   -22.291 -0.0057  0.9989 -0.0465
     1 S(33)  Bbb    -1.5126   -62.016   -22.129   -20.686  1.0000  0.0060  0.0062
              Bcc     3.1426   128.843    45.974    42.977 -0.0065  0.0464  0.9989
 
              Baa    -0.2469    17.865     6.375     5.959  0.9215 -0.3784 -0.0875
     2 O(17)  Bbb    -0.2230    16.133     5.757     5.381  0.3876  0.9105  0.1443
              Bcc     0.4698   -33.998   -12.131   -11.340  0.0251 -0.1669  0.9857
 
              Baa    -0.7800    56.443    20.140    18.827  0.7492 -0.6621 -0.0153
     3 O(17)  Bbb    -0.7717    55.841    19.926    18.627  0.6610  0.7490 -0.0448
              Bcc     1.5518  -112.284   -40.066   -37.454  0.0411  0.0235  0.9989
 
              Baa    -0.0133    -7.070    -2.523    -2.358 -0.0794 -0.1534  0.9850
     4 H(1)   Bbb    -0.0076    -4.078    -1.455    -1.360  0.9943 -0.0831  0.0672
              Bcc     0.0209    11.148     3.978     3.718  0.0716  0.9847  0.1591
 

 ---------------------------------------------------------------------------------

 1\1\ CPUSERV-QCEXNOD15\SP\UwB97XD\6-311+G(3df)\H1O2S1(2)\VPEREZ\20-Aug
 -2025\0\\#sp wB97XD/6-311+G(3df)\\Optimizacion del hoso\\0,2\S,0,-0.13
 4843,-0.472008,0.017308\O,0,1.315132,0.250471,-0.04704\O,0,-1.192636,0
 .548438,-0.020037\H,0,1.129521,1.149845,0.276681\\Version=EM64L-G09Rev
 C.01\State=2-A\HF=-549.220165\S2=0.755536\S2-1=0.\S2A=0.750021\RMSD=6.
 750e-09\Dipole=0.4850348,0.0138061,0.2160139\Quadrupole=-2.2282172,1.9
 812839,0.2469332,2.2783675,0.4832513,0.6535648\PG=C01 [X(H1O2S1)]\\@


 NEVER LOSE YOUR IGNORANCE, IT CAN'T BE REPLACED.
   -- ANDY CAPP
 Job cpu time:  0 days  0 hours  5 minutes 33.1 seconds.
 File lengths (MBytes):  RWF=     21 Int=      0 D2E=      0 Chk=      2 Scr=      1
 Normal termination of Gaussian 09 at Wed Aug 20 22:59:58 2025.
