 Entering Gaussian System, Link 0=g09
 Initial command:
 /soft/g09.c01/g09/l1.exe /scr/macias/389610.qcexmaster_vib5_0.15/Gau-9932.inp -scrdir=/scr/macias/389610.qcexmaster_vib5_0.15/
 Entering Link 1 = /soft/g09.c01/g09/l1.exe PID=      9937.
  
 Copyright (c) 1988,1990,1992,1993,1995,1998,2003,2009,2011,
            Gaussian, Inc.  All Rights Reserved.
  
 This is part of the Gaussian(R) 09 program.  It is based on
 the Gaussian(R) 03 system (copyright 2003, Gaussian, Inc.),
 the Gaussian(R) 98 system (copyright 1998, Gaussian, Inc.),
 the Gaussian(R) 94 system (copyright 1995, Gaussian, Inc.),
 the Gaussian 92(TM) system (copyright 1992, Gaussian, Inc.),
 the Gaussian 90(TM) system (copyright 1990, Gaussian, Inc.),
 the Gaussian 88(TM) system (copyright 1988, Gaussian, Inc.),
 the Gaussian 86(TM) system (copyright 1986, Carnegie Mellon
 University), and the Gaussian 82(TM) system (copyright 1983,
 Carnegie Mellon University). Gaussian is a federally registered
 trademark of Gaussian, Inc.
  
 This software contains proprietary and confidential information,
 including trade secrets, belonging to Gaussian, Inc.
  
 This software is provided under written license and may be
 used, copied, transmitted, or stored only in accord with that
 written license.
  
 The following legend is applicable only to US Government
 contracts under FAR:
  
                    RESTRICTED RIGHTS LEGEND
  
 Use, reproduction and disclosure by the US Government is
 subject to restrictions as set forth in subparagraphs (a)
 and (c) of the Commercial Computer Software - Restricted
 Rights clause in FAR 52.227-19.
  
 Gaussian, Inc.
 340 Quinnipiac St., Bldg. 40, Wallingford CT 06492
  
  
 ---------------------------------------------------------------
 Warning -- This program may not be used in any manner that
 competes with the business of Gaussian, Inc. or will provide
 assistance to any competitor of Gaussian, Inc.  The licensee
 of this program is prohibited from giving any competitor of
 Gaussian, Inc. access to this program.  By using this program,
 the user acknowledges that Gaussian, Inc. is engaged in the
 business of creating and licensing software in the field of
 computational chemistry and represents and warrants to the
 licensee that it is not a competitor of Gaussian, Inc. and that
 it will not use this program in any manner prohibited above.
 ---------------------------------------------------------------
  

 Cite this work as:
 Gaussian 09, Revision C.01,
 M. J. Frisch, G. W. Trucks, H. B. Schlegel, G. E. Scuseria, 
 M. A. Robb, J. R. Cheeseman, G. Scalmani, V. Barone, B. Mennucci, 
 G. A. Petersson, H. Nakatsuji, M. Caricato, X. Li, H. P. Hratchian, 
 A. F. Izmaylov, J. Bloino, G. Zheng, J. L. Sonnenberg, M. Hada, 
 M. Ehara, K. Toyota, R. Fukuda, J. Hasegawa, M. Ishida, T. Nakajima, 
 Y. Honda, O. Kitao, H. Nakai, T. Vreven, J. A. Montgomery, Jr., 
 J. E. Peralta, F. Ogliaro, M. Bearpark, J. J. Heyd, E. Brothers, 
 K. N. Kudin, V. N. Staroverov, T. Keith, R. Kobayashi, J. Normand, 
 K. Raghavachari, A. Rendell, J. C. Burant, S. S. Iyengar, J. Tomasi, 
 M. Cossi, N. Rega, J. M. Millam, M. Klene, J. E. Knox, J. B. Cross, 
 V. Bakken, C. Adamo, J. Jaramillo, R. Gomperts, R. E. Stratmann, 
 O. Yazyev, A. J. Austin, R. Cammi, C. Pomelli, J. W. Ochterski, 
 R. L. Martin, K. Morokuma, V. G. Zakrzewski, G. A. Voth, 
 P. Salvador, J. J. Dannenberg, S. Dapprich, A. D. Daniels, 
 O. Farkas, J. B. Foresman, J. V. Ortiz, J. Cioslowski, 
 and D. J. Fox, Gaussian, Inc., Wallingford CT, 2010.
 
  
 -----  Compilado por  -----------------------------------------
  
  Servicio de Calculo | Servicio de Informatica U. de Valencia
     calculo@uv.es    |  E-46100 Burjassot (Valencia) SPAIN
  
 ---------------------------------------------------------------
  
 ******************************************
 Gaussian 09:  EM64L-G09RevC.01 23-Sep-2011
                21-Aug-2020 
 ******************************************
 %chk=opt_freq.chk
 %nproc=6
 Will use up to    6 processors via shared memory.
 %mem=20GB
 Default route:  CacheSize=131072
 -----------------------
 #sp wB97XD/6-311+G(3df)
 -----------------------
 1/4=131072,38=1/1;
 2/4=131072,12=2,17=6,18=5,40=1/2;
 3/4=131072,5=4,6=6,7=16,11=2,16=1,25=1,30=1,74=-58/1,2,3;
 4/4=131072/1;
 5/4=131072,5=2,38=5/2;
 6/4=131072,7=2,8=2,9=2,10=2,28=1/1;
 99/4=131072,5=1,9=1/99;
 ---------------------
 Optimizacion del hoso
 ---------------------
 Charge =  0 Multiplicity = 2
 Symbolic Z-Matrix:
 S                    -0.16884  -0.43951   0.01631 
 O                     1.31763   0.25047  -0.04804 
 O                    -1.12414   0.48244  -0.01854 
 H                     1.11602   1.14935   0.27618 
 
                          Input orientation:                          
 ---------------------------------------------------------------------
 Center     Atomic      Atomic             Coordinates (Angstroms)
 Number     Number       Type             X           Y           Z
 ---------------------------------------------------------------------
      1         16           0       -0.168843   -0.439508    0.016308
      2          8           0        1.317632    0.250471   -0.048040
      3          8           0       -1.124136    0.482438   -0.018537
      4          1           0        1.116021    1.149345    0.276181
 ---------------------------------------------------------------------
                    Distance matrix (angstroms):
                    1          2          3          4
     1  S    0.000000
     2  O    1.640067   0.000000
     3  O    1.328075   2.452939   0.000000
     4  H    2.059821   0.976596   2.355828   0.000000
 Stoichiometry    HO2S(2)
 Framework group  C1[X(HO2S)]
 Deg. of freedom     6
 Full point group                 C1      NOp   1
 Largest Abelian subgroup         C1      NOp   1
 Largest concise Abelian subgroup C1      NOp   1
                         Standard orientation:                         
 ---------------------------------------------------------------------
 Center     Atomic      Atomic             Coordinates (Angstroms)
 Number     Number       Type             X           Y           Z
 ---------------------------------------------------------------------
      1         16           0       -0.185463   -0.431637    0.018105
      2          8           0        1.328021    0.196969   -0.045468
      3          8           0       -1.102369    0.528164   -0.024878
      4          1           0        1.162194    1.105134    0.273088
 ---------------------------------------------------------------------
 Rotational constants (GHZ):     40.9771501     10.0571428      8.1056267
 Standard basis: 6-311+G(3df) (5D, 7F)
 There are   128 symmetry adapted basis functions of A   symmetry.
 Integral buffers will be    131072 words long.
 Raffenetti 2 integral format.
 Two-electron integral symmetry is turned on.
   128 basis functions,   193 primitive gaussians,   146 cartesian basis functions
    17 alpha electrons       16 beta electrons
       nuclear repulsion energy       116.3512788820 Hartrees.
 NAtoms=    4 NActive=    4 NUniq=    4 SFac= 1.00D+00 NAtFMM=   60 NAOKFM=F Big=F
 Nuclear repulsion after empirical dispersion term =      116.3510715847 Hartrees.
 One-electron integrals computed using PRISM.
 NBasis=   128 RedAO= T  NBF=   128
 NBsUse=   128 1.00D-06 NBFU=   128
 Harris functional with IExCor= 4639 diagonalized for initial guess.
 ExpMin= 4.05D-02 ExpMax= 9.34D+04 ExpMxC= 3.17D+03 IAcc=2 IRadAn=         4 AccDes= 0.00D+00
 HarFok:  IExCor= 4639 AccDes= 0.00D+00 IRadAn=         4 IDoV= 1
 ScaDFX=  1.000000  1.000000  1.000000  1.000000
 FoFCou: FMM=F IPFlag=           0 FMFlag=      100000 FMFlg1=           0
         NFxFlg=           0 DoJE=T BraDBF=F KetDBF=T FulRan=T
         Omega=  0.000000  0.000000  1.000000  0.000000  0.000000 ICntrl=     500 IOpCl=  0
         NMat0=    1 NMatS0=    1 NMatT0=    0 NMatD0=    1 NMtDS0=    0 NMtDT0=    0
         I1Cent=           4 NGrid=           0.
 Petite list used in FoFCou.
 Initial guess orbital symmetries:
 Alpha Orbitals:
       Occupied  (A) (A) (A) (A) (A) (A) (A) (A) (A) (A) (A) (A)
                 (A) (A) (A) (A) (A)
       Virtual   (A) (A) (A) (A) (A) (A) (A) (A) (A) (A) (A) (A)
                 (A) (A) (A) (A) (A) (A) (A) (A) (A) (A) (A) (A)
                 (A) (A) (A) (A) (A) (A) (A) (A) (A) (A) (A) (A)
                 (A) (A) (A) (A) (A) (A) (A) (A) (A) (A) (A) (A)
                 (A) (A) (A) (A) (A) (A) (A) (A) (A) (A) (A) (A)
                 (A) (A) (A) (A) (A) (A) (A) (A) (A) (A) (A) (A)
                 (A) (A) (A) (A) (A) (A) (A) (A) (A) (A) (A) (A)
                 (A) (A) (A) (A) (A) (A) (A) (A) (A) (A) (A) (A)
                 (A) (A) (A) (A) (A) (A) (A) (A) (A) (A) (A) (A)
                 (A) (A) (A)
 Beta  Orbitals:
       Occupied  (A) (A) (A) (A) (A) (A) (A) (A) (A) (A) (A) (A)
                 (A) (A) (A) (A)
       Virtual   (A) (A) (A) (A) (A) (A) (A) (A) (A) (A) (A) (A)
                 (A) (A) (A) (A) (A) (A) (A) (A) (A) (A) (A) (A)
                 (A) (A) (A) (A) (A) (A) (A) (A) (A) (A) (A) (A)
                 (A) (A) (A) (A) (A) (A) (A) (A) (A) (A) (A) (A)
                 (A) (A) (A) (A) (A) (A) (A) (A) (A) (A) (A) (A)
                 (A) (A) (A) (A) (A) (A) (A) (A) (A) (A) (A) (A)
                 (A) (A) (A) (A) (A) (A) (A) (A) (A) (A) (A) (A)
                 (A) (A) (A) (A) (A) (A) (A) (A) (A) (A) (A) (A)
                 (A) (A) (A) (A) (A) (A) (A) (A) (A) (A) (A) (A)
                 (A) (A) (A) (A)
 The electronic state of the initial guess is 2-A.
 Initial guess <Sx>= 0.0000 <Sy>= 0.0000 <Sz>= 0.5000 <S**2>= 0.7500 S= 0.5000
 Requested convergence on RMS density matrix=1.00D-08 within 128 cycles.
 Requested convergence on MAX density matrix=1.00D-06.
 Requested convergence on             energy=1.00D-06.
 No special actions if energy rises.
 FoFJK:  IHMeth= 1 ICntrl=     0 DoSepK=T KAlg= 1 I1Cent= 0 FoldK=F
 FoFJK:  IHMeth= 1 ICntrl=     0 DoSepK=T KAlg= 1 I1Cent= 0 FoldK=F
 FoFJK:  IHMeth= 1 ICntrl=     0 DoSepK=T KAlg= 1 I1Cent= 0 FoldK=F
 FoFJK:  IHMeth= 1 ICntrl=     0 DoSepK=T KAlg= 1 I1Cent= 0 FoldK=F
 FoFJK:  IHMeth= 1 ICntrl=     0 DoSepK=T KAlg= 1 I1Cent= 0 FoldK=F
 FoFJK:  IHMeth= 1 ICntrl=     0 DoSepK=T KAlg= 1 I1Cent= 0 FoldK=F
 FoFJK:  IHMeth= 1 ICntrl=     0 DoSepK=T KAlg= 1 I1Cent= 0 FoldK=F
 FoFJK:  IHMeth= 1 ICntrl=     0 DoSepK=T KAlg= 1 I1Cent= 0 FoldK=F
 FoFJK:  IHMeth= 1 ICntrl=     0 DoSepK=T KAlg= 1 I1Cent= 0 FoldK=F
 FoFJK:  IHMeth= 1 ICntrl=     0 DoSepK=T KAlg= 1 I1Cent= 0 FoldK=F
 FoFJK:  IHMeth= 1 ICntrl=     0 DoSepK=T KAlg= 1 I1Cent= 0 FoldK=F
 FoFJK:  IHMeth= 1 ICntrl=     0 DoSepK=T KAlg= 1 I1Cent= 0 FoldK=F
 FoFJK:  IHMeth= 1 ICntrl=     0 DoSepK=T KAlg= 1 I1Cent= 0 FoldK=F
 FoFJK:  IHMeth= 1 ICntrl=     0 DoSepK=T KAlg= 1 I1Cent= 0 FoldK=F
 FoFJK:  IHMeth= 1 ICntrl=     0 DoSepK=T KAlg= 1 I1Cent= 0 FoldK=F
 SCF Done:  E(UwB97XD) =  -549.193416359     A.U. after   15 cycles
             Convg  =    0.3875D-08             -V/T =  2.0006
 <Sx>= 0.0000 <Sy>= 0.0000 <Sz>= 0.5000 <S**2>= 0.7548 S= 0.5024
 <L.S>= 0.000000000000E+00
 Annihilation of the first spin contaminant:
 S**2 before annihilation     0.7548,   after     0.7500

 **********************************************************************

            Population analysis using the SCF density.

 **********************************************************************

 Orbital symmetries:
 Alpha Orbitals:
       Occupied  (A) (A) (A) (A) (A) (A) (A) (A) (A) (A) (A) (A)
                 (A) (A) (A) (A) (A)
       Virtual   (A) (A) (A) (A) (A) (A) (A) (A) (A) (A) (A) (A)
                 (A) (A) (A) (A) (A) (A) (A) (A) (A) (A) (A) (A)
                 (A) (A) (A) (A) (A) (A) (A) (A) (A) (A) (A) (A)
                 (A) (A) (A) (A) (A) (A) (A) (A) (A) (A) (A) (A)
                 (A) (A) (A) (A) (A) (A) (A) (A) (A) (A) (A) (A)
                 (A) (A) (A) (A) (A) (A) (A) (A) (A) (A) (A) (A)
                 (A) (A) (A) (A) (A) (A) (A) (A) (A) (A) (A) (A)
                 (A) (A) (A) (A) (A) (A) (A) (A) (A) (A) (A) (A)
                 (A) (A) (A) (A) (A) (A) (A) (A) (A) (A) (A) (A)
                 (A) (A) (A)
 Beta  Orbitals:
       Occupied  (A) (A) (A) (A) (A) (A) (A) (A) (A) (A) (A) (A)
                 (A) (A) (A) (A)
       Virtual   (A) (A) (A) (A) (A) (A) (A) (A) (A) (A) (A) (A)
                 (A) (A) (A) (A) (A) (A) (A) (A) (A) (A) (A) (A)
                 (A) (A) (A) (A) (A) (A) (A) (A) (A) (A) (A) (A)
                 (A) (A) (A) (A) (A) (A) (A) (A) (A) (A) (A) (A)
                 (A) (A) (A) (A) (A) (A) (A) (A) (A) (A) (A) (A)
                 (A) (A) (A) (A) (A) (A) (A) (A) (A) (A) (A) (A)
                 (A) (A) (A) (A) (A) (A) (A) (A) (A) (A) (A) (A)
                 (A) (A) (A) (A) (A) (A) (A) (A) (A) (A) (A) (A)
                 (A) (A) (A) (A) (A) (A) (A) (A) (A) (A) (A) (A)
                 (A) (A) (A) (A)
 The electronic state is 2-A.
 Alpha  occ. eigenvalues --  -89.13205 -19.30937 -19.28227  -8.16485  -6.11361
 Alpha  occ. eigenvalues --   -6.11142  -6.10795  -1.27391  -1.16646  -0.77490
 Alpha  occ. eigenvalues --   -0.62714  -0.60043  -0.59261  -0.52491  -0.47461
 Alpha  occ. eigenvalues --   -0.43311  -0.29013
 Alpha virt. eigenvalues --    0.05723   0.07002   0.08324   0.09301   0.12225
 Alpha virt. eigenvalues --    0.14799   0.19336   0.22414   0.24660   0.25211
 Alpha virt. eigenvalues --    0.26441   0.27839   0.30717   0.32303   0.32729
 Alpha virt. eigenvalues --    0.35491   0.36897   0.37932   0.40644   0.41903
 Alpha virt. eigenvalues --    0.42206   0.52993   0.57379   0.71790   0.79813
 Alpha virt. eigenvalues --    0.81536   0.87356   0.87619   0.93230   0.94382
 Alpha virt. eigenvalues --    0.96660   0.98769   0.99420   1.03179   1.06232
 Alpha virt. eigenvalues --    1.09310   1.10849   1.11805   1.15743   1.22234
 Alpha virt. eigenvalues --    1.25737   1.32484   1.37636   1.38839   1.42811
 Alpha virt. eigenvalues --    1.46812   1.67044   1.68674   1.81336   1.82343
 Alpha virt. eigenvalues --    1.93370   2.00933   2.08469   2.10645   2.10959
 Alpha virt. eigenvalues --    2.17194   2.33361   2.47663   2.52665   3.37963
 Alpha virt. eigenvalues --    3.42190   3.44294   3.48908   3.50938   3.58484
 Alpha virt. eigenvalues --    3.60663   3.64893   3.74206   3.81359   4.54190
 Alpha virt. eigenvalues --    4.67080   4.73237   4.74951   4.89364   4.99572
 Alpha virt. eigenvalues --    5.03043   5.03682   5.04517   5.06216   5.07900
 Alpha virt. eigenvalues --    5.12260   5.13426   5.19508   5.27415   5.32671
 Alpha virt. eigenvalues --    5.42798   5.47889   5.55256   5.58563   5.76281
 Alpha virt. eigenvalues --    5.94594   5.96232   6.10212   6.53746   8.94355
 Alpha virt. eigenvalues --   14.33064  14.36090  14.36893  14.40271  14.42603
 Alpha virt. eigenvalues --   14.45745  14.50527  14.51515  14.66735  14.73531
 Alpha virt. eigenvalues --   17.39976  17.65816  18.25938  50.03745  50.20979
 Alpha virt. eigenvalues --  190.09940
  Beta  occ. eigenvalues --  -89.12818 -19.30688 -19.27466  -8.16138  -6.11127
  Beta  occ. eigenvalues --   -6.10585  -6.09898  -1.25964  -1.15822  -0.75059
  Beta  occ. eigenvalues --   -0.61453  -0.59132  -0.55510  -0.50862  -0.44897
  Beta  occ. eigenvalues --   -0.41924
  Beta virt. eigenvalues --   -0.01886   0.06070   0.07513   0.08701   0.10120
  Beta virt. eigenvalues --    0.13381   0.15496   0.19761   0.22591   0.25017
  Beta virt. eigenvalues --    0.25419   0.26811   0.28236   0.30969   0.32579
  Beta virt. eigenvalues --    0.33921   0.35834   0.37316   0.38583   0.41583
  Beta virt. eigenvalues --    0.42252   0.43829   0.53409   0.57644   0.72339
  Beta virt. eigenvalues --    0.80390   0.81811   0.87720   0.88593   0.93840
  Beta virt. eigenvalues --    0.94807   0.98008   0.99323   1.00313   1.03757
  Beta virt. eigenvalues --    1.06933   1.10291   1.12307   1.12772   1.16039
  Beta virt. eigenvalues --    1.23415   1.26638   1.32873   1.38333   1.39832
  Beta virt. eigenvalues --    1.43551   1.47222   1.70386   1.70882   1.82993
  Beta virt. eigenvalues --    1.84056   1.94142   2.02379   2.09153   2.11211
  Beta virt. eigenvalues --    2.13534   2.17715   2.33838   2.48230   2.53564
  Beta virt. eigenvalues --    3.38929   3.43829   3.46173   3.49708   3.51788
  Beta virt. eigenvalues --    3.59254   3.62766   3.65524   3.74618   3.82263
  Beta virt. eigenvalues --    4.54760   4.67514   4.73451   4.75891   4.90046
  Beta virt. eigenvalues --    5.00135   5.03687   5.04692   5.05288   5.07709
  Beta virt. eigenvalues --    5.09458   5.13067   5.16640   5.20117   5.28360
  Beta virt. eigenvalues --    5.33859   5.43482   5.48452   5.55968   5.59353
  Beta virt. eigenvalues --    5.76571   5.95645   5.97450   6.10799   6.54132
  Beta virt. eigenvalues --    8.94704  14.34434  14.38625  14.39966  14.41459
  Beta virt. eigenvalues --   14.44059  14.46773  14.51459  14.54541  14.67413
  Beta virt. eigenvalues --   14.75178  17.41394  17.66117  18.26291  50.03971
  Beta virt. eigenvalues --   50.21627 190.10244
          Condensed to atoms (all electrons):
              1          2          3          4
     1  S   15.525386  -0.028025   0.010980   0.011114
     2  O   -0.028025   8.452810   0.010673   0.209477
     3  O    0.010980   0.010673   8.301660  -0.002763
     4  H    0.011114   0.209477  -0.002763   0.297234
 Mulliken atomic charges:
              1
     1  S    0.480546
     2  O   -0.644935
     3  O   -0.320549
     4  H    0.484938
 Sum of Mulliken atomic charges =   0.00000
 Mulliken charges with hydrogens summed into heavy atoms:
              1
     1  S    0.480546
     2  O   -0.159996
     3  O   -0.320549
 Sum of Mulliken charges with hydrogens summed into heavy atoms =   0.00000
          Atomic-Atomic Spin Densities.
              1          2          3          4
     1  S    1.077568  -0.113863  -0.249712  -0.001889
     2  O   -0.113863   0.152867   0.022811  -0.004793
     3  O   -0.249712   0.022811   0.456527  -0.000186
     4  H   -0.001889  -0.004793  -0.000186   0.008304
 Mulliken atomic spin densities:
              1
     1  S    0.712102
     2  O    0.057022
     3  O    0.229440
     4  H    0.001435
 Sum of Mulliken atomic spin densities =   1.00000
 Electronic spatial extent (au):  <R**2>=            169.2748
 Charge=              0.0000 electrons
 Dipole moment (field-independent basis, Debye):
    X=              0.5310    Y=              0.3582    Z=              0.5308  Tot=              0.8319
 Quadrupole moment (field-independent basis, Debye-Ang):
   XX=            -26.3028   YY=            -21.4994   ZZ=            -23.4017
   XY=              2.9949   XZ=              0.6333   YZ=              0.8608
 Traceless Quadrupole moment (field-independent basis, Debye-Ang):
   XX=             -2.5682   YY=              2.2353   ZZ=              0.3329
   XY=              2.9949   XZ=              0.6333   YZ=              0.8608
 Octapole moment (field-independent basis, Debye-Ang**2):
  XXX=             -1.3279  YYY=              5.1898  ZZZ=             -0.1015  XYY=              3.7882
  XXY=              0.5953  XXZ=              0.7658  XZZ=             -0.3673  YZZ=              1.5132
  YYZ=              0.9195  XYZ=              0.9600
 Hexadecapole moment (field-independent basis, Debye-Ang**3):
 XXXX=           -134.7964 YYYY=            -48.6488 ZZZZ=            -24.9695 XXXY=              4.8423
 XXXZ=              0.9225 YYYX=              4.3763 YYYZ=              1.2447 ZZZX=              0.3587
 ZZZY=              0.6391 XXYY=            -26.2526 XXZZ=            -25.7830 YYZZ=            -13.2121
 XXYZ=              1.3310 YYXZ=              1.0417 ZZXY=              0.2224
 N-N= 1.163510715847D+02 E-N=-2.297227016525D+03  KE= 8.219250557702D+02
                          Isotropic Fermi Contact Couplings
        Atom                 a.u.       MegaHertz       Gauss      10(-4) cm-1
     1  S(33)              0.10108      34.71660      12.38774      11.58021
     2  O(17)              0.02076     -12.58362      -4.49015      -4.19744
     3  O(17)              0.04700     -28.49363     -10.16724      -9.50445
     4  H(1)               0.00081       3.63936       1.29861       1.21396
 --------------------------------------------------------
       Center         ----  Spin Dipole Couplings  ----
                      3XX-RR        3YY-RR        3ZZ-RR
 --------------------------------------------------------
     1   Atom       -1.508074     -1.620254      3.128328
     2   Atom       -0.235486     -0.210697      0.446182
     3   Atom       -0.674912     -0.675126      1.350038
     4   Atom       -0.007477      0.020256     -0.012780
 --------------------------------------------------------
                        XY            XZ            YZ
 --------------------------------------------------------
     1   Atom       -0.016149     -0.006948      0.264427
     2   Atom        0.009019      0.008821     -0.109728
     3   Atom       -0.004948      0.073452      0.071424
     4   Atom        0.003850      0.000860      0.005205
 --------------------------------------------------------


 ---------------------------------------------------------------------------------
              Anisotropic Spin Dipole Couplings in Principal Axis System
 ---------------------------------------------------------------------------------

       Atom             a.u.   MegaHertz   Gauss  10(-4) cm-1        Axes

              Baa    -1.6369   -67.110   -23.946   -22.385  0.1213  0.9911 -0.0548
     1 S(33)  Bbb    -1.5062   -61.751   -22.034   -20.598  0.9926 -0.1210  0.0084
              Bcc     3.1430   128.861    45.981    42.983 -0.0017  0.0554  0.9985
 
              Baa    -0.2429    17.580     6.273     5.864  0.8130 -0.5733 -0.1017
     2 O(17)  Bbb    -0.2212    16.002     5.710     5.338  0.5822  0.8035  0.1244
              Bcc     0.4641   -33.582   -11.983   -11.202  0.0104 -0.1604  0.9870
 
              Baa    -0.6851    49.575    17.690    16.536  0.7046  0.7078 -0.0503
     3 O(17)  Bbb    -0.6701    48.486    17.301    16.173  0.7087 -0.7055 -0.0008
              Bcc     1.3552   -98.061   -34.991   -32.710  0.0360  0.0350  0.9987
 
              Baa    -0.0136    -7.252    -2.588    -2.419 -0.0466 -0.1467  0.9881
     4 H(1)   Bbb    -0.0080    -4.267    -1.523    -1.423  0.9899 -0.1397  0.0259
              Bcc     0.0216    11.520     4.110     3.842  0.1342  0.9793  0.1517
 

 ---------------------------------------------------------------------------------

 1\1\ CPUSERV-QCEXNOD16\SP\UwB97XD\6-311+G(3df)\H1O2S1(2)\ROOT\21-Aug-2
 020\0\\#sp wB97XD/6-311+G(3df)\\Optimizacion del hoso\\0,2\S,0,-0.1688
 43,-0.439508,0.016308\O,0,1.317632,0.250471,-0.04804\O,0,-1.124136,0.4
 82438,-0.018537\H,0,1.116021,1.149345,0.276181\\Version=EM64L-G09RevC.
 01\State=2-A\HF=-549.1934164\S2=0.754811\S2-1=0.\S2A=0.750016\RMSD=3.8
 75e-09\Dipole=0.2036597,0.1481521,0.2090432\Quadrupole=-2.0815557,1.82
 94994,0.2520562,2.0737164,0.4633153,0.6609593\PG=C01 [X(H1O2S1)]\\@


 MUD THROWN IS GROUND LOST -- FROM A TEA BAG
 Job cpu time:  0 days  0 hours  4 minutes 37.5 seconds.
 File lengths (MBytes):  RWF=     21 Int=      0 D2E=      0 Chk=      2 Scr=      1
 Normal termination of Gaussian 09 at Fri Aug 21 00:31:55 2020.
