 Entering Gaussian System, Link 0=g09
 Initial command:
 /soft/g09.c01/g09/l1.exe /scr/macias/389581.qcexmaster_vib2_0.05/Gau-843.inp -scrdir=/scr/macias/389581.qcexmaster_vib2_0.05/
 Entering Link 1 = /soft/g09.c01/g09/l1.exe PID=       860.
  
 Copyright (c) 1988,1990,1992,1993,1995,1998,2003,2009,2011,
            Gaussian, Inc.  All Rights Reserved.
  
 This is part of the Gaussian(R) 09 program.  It is based on
 the Gaussian(R) 03 system (copyright 2003, Gaussian, Inc.),
 the Gaussian(R) 98 system (copyright 1998, Gaussian, Inc.),
 the Gaussian(R) 94 system (copyright 1995, Gaussian, Inc.),
 the Gaussian 92(TM) system (copyright 1992, Gaussian, Inc.),
 the Gaussian 90(TM) system (copyright 1990, Gaussian, Inc.),
 the Gaussian 88(TM) system (copyright 1988, Gaussian, Inc.),
 the Gaussian 86(TM) system (copyright 1986, Carnegie Mellon
 University), and the Gaussian 82(TM) system (copyright 1983,
 Carnegie Mellon University). Gaussian is a federally registered
 trademark of Gaussian, Inc.
  
 This software contains proprietary and confidential information,
 including trade secrets, belonging to Gaussian, Inc.
  
 This software is provided under written license and may be
 used, copied, transmitted, or stored only in accord with that
 written license.
  
 The following legend is applicable only to US Government
 contracts under FAR:
  
                    RESTRICTED RIGHTS LEGEND
  
 Use, reproduction and disclosure by the US Government is
 subject to restrictions as set forth in subparagraphs (a)
 and (c) of the Commercial Computer Software - Restricted
 Rights clause in FAR 52.227-19.
  
 Gaussian, Inc.
 340 Quinnipiac St., Bldg. 40, Wallingford CT 06492
  
  
 ---------------------------------------------------------------
 Warning -- This program may not be used in any manner that
 competes with the business of Gaussian, Inc. or will provide
 assistance to any competitor of Gaussian, Inc.  The licensee
 of this program is prohibited from giving any competitor of
 Gaussian, Inc. access to this program.  By using this program,
 the user acknowledges that Gaussian, Inc. is engaged in the
 business of creating and licensing software in the field of
 computational chemistry and represents and warrants to the
 licensee that it is not a competitor of Gaussian, Inc. and that
 it will not use this program in any manner prohibited above.
 ---------------------------------------------------------------
  

 Cite this work as:
 Gaussian 09, Revision C.01,
 M. J. Frisch, G. W. Trucks, H. B. Schlegel, G. E. Scuseria, 
 M. A. Robb, J. R. Cheeseman, G. Scalmani, V. Barone, B. Mennucci, 
 G. A. Petersson, H. Nakatsuji, M. Caricato, X. Li, H. P. Hratchian, 
 A. F. Izmaylov, J. Bloino, G. Zheng, J. L. Sonnenberg, M. Hada, 
 M. Ehara, K. Toyota, R. Fukuda, J. Hasegawa, M. Ishida, T. Nakajima, 
 Y. Honda, O. Kitao, H. Nakai, T. Vreven, J. A. Montgomery, Jr., 
 J. E. Peralta, F. Ogliaro, M. Bearpark, J. J. Heyd, E. Brothers, 
 K. N. Kudin, V. N. Staroverov, T. Keith, R. Kobayashi, J. Normand, 
 K. Raghavachari, A. Rendell, J. C. Burant, S. S. Iyengar, J. Tomasi, 
 M. Cossi, N. Rega, J. M. Millam, M. Klene, J. E. Knox, J. B. Cross, 
 V. Bakken, C. Adamo, J. Jaramillo, R. Gomperts, R. E. Stratmann, 
 O. Yazyev, A. J. Austin, R. Cammi, C. Pomelli, J. W. Ochterski, 
 R. L. Martin, K. Morokuma, V. G. Zakrzewski, G. A. Voth, 
 P. Salvador, J. J. Dannenberg, S. Dapprich, A. D. Daniels, 
 O. Farkas, J. B. Foresman, J. V. Ortiz, J. Cioslowski, 
 and D. J. Fox, Gaussian, Inc., Wallingford CT, 2010.
 
  
 -----  Compilado por  -----------------------------------------
  
  Servicio de Calculo | Servicio de Informatica U. de Valencia
     calculo@uv.es    |  E-46100 Burjassot (Valencia) SPAIN
  
 ---------------------------------------------------------------
  
 ******************************************
 Gaussian 09:  EM64L-G09RevC.01 23-Sep-2011
                21-Aug-2025 
 ******************************************
 %chk=opt_freq.chk
 %nproc=6
 Will use up to    6 processors via shared memory.
 %mem=20GB
 Default route:  CacheSize=131072
 -----------------------
 #sp wB97XD/6-311+G(3df)
 -----------------------
 1/4=131072,38=1/1;
 2/4=131072,12=2,17=6,18=5,40=1/2;
 3/4=131072,5=4,6=6,7=16,11=2,16=1,25=1,30=1,74=-58/1,2,3;
 4/4=131072/1;
 5/4=131072,5=2,38=5/2;
 6/4=131072,7=2,8=2,9=2,10=2,28=1/1;
 99/4=131072,5=1,9=1/99;
 ---------------------
 Optimizacion del hoso
 ---------------------
 Charge =  0 Multiplicity = 2
 Symbolic Z-Matrix:
 S                    -0.13834  -0.46501   0.01481 
 O                     1.32413   0.24697  -0.04254 
 O                    -1.20264   0.53644  -0.01854 
 H                     1.26052   1.16985   0.23668 
 
                          Input orientation:                          
 ---------------------------------------------------------------------
 Center     Atomic      Atomic             Coordinates (Angstroms)
 Number     Number       Type             X           Y           Z
 ---------------------------------------------------------------------
      1         16           0       -0.138343   -0.465008    0.014808
      2          8           0        1.324132    0.246971   -0.042540
      3          8           0       -1.202636    0.536438   -0.018537
      4          1           0        1.260521    1.169845    0.236681
 ---------------------------------------------------------------------
                    Distance matrix (angstroms):
                    1          2          3          4
     1  S    0.000000
     2  O    1.627586   0.000000
     3  O    1.461754   2.543408   0.000000
     4  H    2.163052   0.966285   2.556068   0.000000
 Stoichiometry    HO2S(2)
 Framework group  C1[X(HO2S)]
 Deg. of freedom     6
 Full point group                 C1      NOp   1
 Largest Abelian subgroup         C1      NOp   1
 Largest concise Abelian subgroup C1      NOp   1
                         Standard orientation:                         
 ---------------------------------------------------------------------
 Center     Atomic      Atomic             Coordinates (Angstroms)
 Number     Number       Type             X           Y           Z
 ---------------------------------------------------------------------
      1         16           0       -0.137962   -0.465196    0.015420
      2          8           0        1.323054    0.249777   -0.041863
      3          8           0       -1.204313    0.534036   -0.018596
      4          1           0        1.257469    1.172632    0.236963
 ---------------------------------------------------------------------
 Rotational constants (GHZ):     36.4014484      9.4424656      7.5174919
 Standard basis: 6-311+G(3df) (5D, 7F)
 There are   128 symmetry adapted basis functions of A   symmetry.
 Integral buffers will be    131072 words long.
 Raffenetti 2 integral format.
 Two-electron integral symmetry is turned on.
   128 basis functions,   193 primitive gaussians,   146 cartesian basis functions
    17 alpha electrons       16 beta electrons
       nuclear repulsion energy       111.2219787057 Hartrees.
 NAtoms=    4 NActive=    4 NUniq=    4 SFac= 1.00D+00 NAtFMM=   60 NAOKFM=F Big=F
 Nuclear repulsion after empirical dispersion term =      111.2217149271 Hartrees.
 One-electron integrals computed using PRISM.
 NBasis=   128 RedAO= T  NBF=   128
 NBsUse=   128 1.00D-06 NBFU=   128
 Harris functional with IExCor= 4639 diagonalized for initial guess.
 ExpMin= 4.05D-02 ExpMax= 9.34D+04 ExpMxC= 3.17D+03 IAcc=2 IRadAn=         4 AccDes= 0.00D+00
 HarFok:  IExCor= 4639 AccDes= 0.00D+00 IRadAn=         4 IDoV= 1
 ScaDFX=  1.000000  1.000000  1.000000  1.000000
 FoFCou: FMM=F IPFlag=           0 FMFlag=      100000 FMFlg1=           0
         NFxFlg=           0 DoJE=T BraDBF=F KetDBF=T FulRan=T
         Omega=  0.000000  0.000000  1.000000  0.000000  0.000000 ICntrl=     500 IOpCl=  0
         NMat0=    1 NMatS0=    1 NMatT0=    0 NMatD0=    1 NMtDS0=    0 NMtDT0=    0
         I1Cent=           4 NGrid=           0.
 Petite list used in FoFCou.
 Initial guess orbital symmetries:
 Alpha Orbitals:
       Occupied  (A) (A) (A) (A) (A) (A) (A) (A) (A) (A) (A) (A)
                 (A) (A) (A) (A) (A)
       Virtual   (A) (A) (A) (A) (A) (A) (A) (A) (A) (A) (A) (A)
                 (A) (A) (A) (A) (A) (A) (A) (A) (A) (A) (A) (A)
                 (A) (A) (A) (A) (A) (A) (A) (A) (A) (A) (A) (A)
                 (A) (A) (A) (A) (A) (A) (A) (A) (A) (A) (A) (A)
                 (A) (A) (A) (A) (A) (A) (A) (A) (A) (A) (A) (A)
                 (A) (A) (A) (A) (A) (A) (A) (A) (A) (A) (A) (A)
                 (A) (A) (A) (A) (A) (A) (A) (A) (A) (A) (A) (A)
                 (A) (A) (A) (A) (A) (A) (A) (A) (A) (A) (A) (A)
                 (A) (A) (A) (A) (A) (A) (A) (A) (A) (A) (A) (A)
                 (A) (A) (A)
 Beta  Orbitals:
       Occupied  (A) (A) (A) (A) (A) (A) (A) (A) (A) (A) (A) (A)
                 (A) (A) (A) (A)
       Virtual   (A) (A) (A) (A) (A) (A) (A) (A) (A) (A) (A) (A)
                 (A) (A) (A) (A) (A) (A) (A) (A) (A) (A) (A) (A)
                 (A) (A) (A) (A) (A) (A) (A) (A) (A) (A) (A) (A)
                 (A) (A) (A) (A) (A) (A) (A) (A) (A) (A) (A) (A)
                 (A) (A) (A) (A) (A) (A) (A) (A) (A) (A) (A) (A)
                 (A) (A) (A) (A) (A) (A) (A) (A) (A) (A) (A) (A)
                 (A) (A) (A) (A) (A) (A) (A) (A) (A) (A) (A) (A)
                 (A) (A) (A) (A) (A) (A) (A) (A) (A) (A) (A) (A)
                 (A) (A) (A) (A) (A) (A) (A) (A) (A) (A) (A) (A)
                 (A) (A) (A) (A)
 The electronic state of the initial guess is 2-A.
 Initial guess <Sx>= 0.0000 <Sy>= 0.0000 <Sz>= 0.5000 <S**2>= 0.7500 S= 0.5000
 Requested convergence on RMS density matrix=1.00D-08 within 128 cycles.
 Requested convergence on MAX density matrix=1.00D-06.
 Requested convergence on             energy=1.00D-06.
 No special actions if energy rises.
 FoFJK:  IHMeth= 1 ICntrl=     0 DoSepK=T KAlg= 1 I1Cent= 0 FoldK=F
 FoFJK:  IHMeth= 1 ICntrl=     0 DoSepK=T KAlg= 1 I1Cent= 0 FoldK=F
 FoFJK:  IHMeth= 1 ICntrl=     0 DoSepK=T KAlg= 1 I1Cent= 0 FoldK=F
 FoFJK:  IHMeth= 1 ICntrl=     0 DoSepK=T KAlg= 1 I1Cent= 0 FoldK=F
 FoFJK:  IHMeth= 1 ICntrl=     0 DoSepK=T KAlg= 1 I1Cent= 0 FoldK=F
 FoFJK:  IHMeth= 1 ICntrl=     0 DoSepK=T KAlg= 1 I1Cent= 0 FoldK=F
 FoFJK:  IHMeth= 1 ICntrl=     0 DoSepK=T KAlg= 1 I1Cent= 0 FoldK=F
 FoFJK:  IHMeth= 1 ICntrl=     0 DoSepK=T KAlg= 1 I1Cent= 0 FoldK=F
 FoFJK:  IHMeth= 1 ICntrl=     0 DoSepK=T KAlg= 1 I1Cent= 0 FoldK=F
 FoFJK:  IHMeth= 1 ICntrl=     0 DoSepK=T KAlg= 1 I1Cent= 0 FoldK=F
 FoFJK:  IHMeth= 1 ICntrl=     0 DoSepK=T KAlg= 1 I1Cent= 0 FoldK=F
 FoFJK:  IHMeth= 1 ICntrl=     0 DoSepK=T KAlg= 1 I1Cent= 0 FoldK=F
 FoFJK:  IHMeth= 1 ICntrl=     0 DoSepK=T KAlg= 1 I1Cent= 0 FoldK=F
 FoFJK:  IHMeth= 1 ICntrl=     0 DoSepK=T KAlg= 1 I1Cent= 0 FoldK=F
 FoFJK:  IHMeth= 1 ICntrl=     0 DoSepK=T KAlg= 1 I1Cent= 0 FoldK=F
 SCF Done:  E(UwB97XD) =  -549.221111438     A.U. after   15 cycles
             Convg  =    0.6307D-08             -V/T =  2.0017
 <Sx>= 0.0000 <Sy>= 0.0000 <Sz>= 0.5000 <S**2>= 0.7555 S= 0.5027
 <L.S>= 0.000000000000E+00
 Annihilation of the first spin contaminant:
 S**2 before annihilation     0.7555,   after     0.7500

 **********************************************************************

            Population analysis using the SCF density.

 **********************************************************************

 Orbital symmetries:
 Alpha Orbitals:
       Occupied  (A) (A) (A) (A) (A) (A) (A) (A) (A) (A) (A) (A)
                 (A) (A) (A) (A) (A)
       Virtual   (A) (A) (A) (A) (A) (A) (A) (A) (A) (A) (A) (A)
                 (A) (A) (A) (A) (A) (A) (A) (A) (A) (A) (A) (A)
                 (A) (A) (A) (A) (A) (A) (A) (A) (A) (A) (A) (A)
                 (A) (A) (A) (A) (A) (A) (A) (A) (A) (A) (A) (A)
                 (A) (A) (A) (A) (A) (A) (A) (A) (A) (A) (A) (A)
                 (A) (A) (A) (A) (A) (A) (A) (A) (A) (A) (A) (A)
                 (A) (A) (A) (A) (A) (A) (A) (A) (A) (A) (A) (A)
                 (A) (A) (A) (A) (A) (A) (A) (A) (A) (A) (A) (A)
                 (A) (A) (A) (A) (A) (A) (A) (A) (A) (A) (A) (A)
                 (A) (A) (A)
 Beta  Orbitals:
       Occupied  (A) (A) (A) (A) (A) (A) (A) (A) (A) (A) (A) (A)
                 (A) (A) (A) (A)
       Virtual   (A) (A) (A) (A) (A) (A) (A) (A) (A) (A) (A) (A)
                 (A) (A) (A) (A) (A) (A) (A) (A) (A) (A) (A) (A)
                 (A) (A) (A) (A) (A) (A) (A) (A) (A) (A) (A) (A)
                 (A) (A) (A) (A) (A) (A) (A) (A) (A) (A) (A) (A)
                 (A) (A) (A) (A) (A) (A) (A) (A) (A) (A) (A) (A)
                 (A) (A) (A) (A) (A) (A) (A) (A) (A) (A) (A) (A)
                 (A) (A) (A) (A) (A) (A) (A) (A) (A) (A) (A) (A)
                 (A) (A) (A) (A) (A) (A) (A) (A) (A) (A) (A) (A)
                 (A) (A) (A) (A) (A) (A) (A) (A) (A) (A) (A) (A)
                 (A) (A) (A) (A)
 The electronic state is 2-A.
 Alpha  occ. eigenvalues --  -89.14863 -19.31875 -19.28422  -8.17606  -6.12537
 Alpha  occ. eigenvalues --   -6.12297  -6.11943  -1.22311  -1.15099  -0.80105
 Alpha  occ. eigenvalues --   -0.63312  -0.57287  -0.56518  -0.50513  -0.47302
 Alpha  occ. eigenvalues --   -0.42553  -0.30836
 Alpha virt. eigenvalues --    0.05004   0.06870   0.07675   0.09390   0.11562
 Alpha virt. eigenvalues --    0.13444   0.18959   0.22458   0.24477   0.25012
 Alpha virt. eigenvalues --    0.26482   0.28173   0.30290   0.32468   0.32852
 Alpha virt. eigenvalues --    0.35578   0.36541   0.37835   0.39077   0.39993
 Alpha virt. eigenvalues --    0.41150   0.51435   0.56555   0.68162   0.78694
 Alpha virt. eigenvalues --    0.81146   0.87114   0.87975   0.93957   0.96380
 Alpha virt. eigenvalues --    0.97240   0.97870   1.00047   1.02212   1.05288
 Alpha virt. eigenvalues --    1.09252   1.10195   1.12289   1.14277   1.17251
 Alpha virt. eigenvalues --    1.22121   1.27517   1.33615   1.38403   1.40895
 Alpha virt. eigenvalues --    1.43269   1.66915   1.68134   1.74643   1.80509
 Alpha virt. eigenvalues --    1.92066   2.01656   2.08277   2.09008   2.12400
 Alpha virt. eigenvalues --    2.20489   2.31763   2.36454   2.45039   3.37191
 Alpha virt. eigenvalues --    3.41634   3.45129   3.47618   3.49631   3.55473
 Alpha virt. eigenvalues --    3.57028   3.63820   3.70558   3.71833   4.53272
 Alpha virt. eigenvalues --    4.57431   4.61585   4.70746   4.90940   4.98546
 Alpha virt. eigenvalues --    5.03465   5.04145   5.04516   5.06929   5.09144
 Alpha virt. eigenvalues --    5.09785   5.11362   5.16641   5.23357   5.24718
 Alpha virt. eigenvalues --    5.41749   5.46759   5.53049   5.57695   5.66994
 Alpha virt. eigenvalues --    5.72594   5.85312   5.99961   6.56210   8.77588
 Alpha virt. eigenvalues --   14.32194  14.35368  14.37013  14.39169  14.41034
 Alpha virt. eigenvalues --   14.45430  14.47189  14.49213  14.62055  14.70942
 Alpha virt. eigenvalues --   17.36193  17.60523  17.90449  50.02353  50.11238
 Alpha virt. eigenvalues --  189.81914
  Beta  occ. eigenvalues --  -89.14476 -19.31624 -19.27538  -8.17261  -6.12308
  Beta  occ. eigenvalues --   -6.11735  -6.11055  -1.21164  -1.13627  -0.77846
  Beta  occ. eigenvalues --   -0.61988  -0.56481  -0.53018  -0.48592  -0.43532
  Beta  occ. eigenvalues --   -0.41315
  Beta virt. eigenvalues --   -0.03766   0.05461   0.07221   0.08130   0.09977
  Beta virt. eigenvalues --    0.12611   0.14058   0.19235   0.22691   0.24807
  Beta virt. eigenvalues --    0.25199   0.26990   0.28538   0.30594   0.32619
  Beta virt. eigenvalues --    0.34008   0.35857   0.36913   0.38618   0.40207
  Beta virt. eigenvalues --    0.40825   0.41802   0.52012   0.56763   0.68676
  Beta virt. eigenvalues --    0.79238   0.81477   0.87981   0.88391   0.94595
  Beta virt. eigenvalues --    0.96748   0.97998   0.99036   1.00901   1.03099
  Beta virt. eigenvalues --    1.06085   1.10108   1.12105   1.12679   1.14696
  Beta virt. eigenvalues --    1.18098   1.23436   1.27981   1.35018   1.39204
  Beta virt. eigenvalues --    1.41235   1.43628   1.69968   1.70189   1.76245
  Beta virt. eigenvalues --    1.82088   1.92853   2.03058   2.09078   2.11340
  Beta virt. eigenvalues --    2.12709   2.20950   2.32228   2.37341   2.45548
  Beta virt. eigenvalues --    3.38081   3.43079   3.47454   3.48636   3.50985
  Beta virt. eigenvalues --    3.57507   3.58227   3.64536   3.71564   3.72325
  Beta virt. eigenvalues --    4.53813   4.57606   4.62453   4.71207   4.91528
  Beta virt. eigenvalues --    4.99122   5.04283   5.04942   5.05162   5.08260
  Beta virt. eigenvalues --    5.11635   5.12811   5.13348   5.17529   5.24290
  Beta virt. eigenvalues --    5.26057   5.42354   5.47276   5.53839   5.58414
  Beta virt. eigenvalues --    5.67908   5.73118   5.86991   6.00497   6.56618
  Beta virt. eigenvalues --    8.77951  14.33484  14.37634  14.40141  14.41138
  Beta virt. eigenvalues --   14.43387  14.47625  14.49085  14.50620  14.62687
  Beta virt. eigenvalues --   14.72931  17.37590  17.60812  17.90772  50.02602
  Beta virt. eigenvalues --   50.12010 189.82220
          Condensed to atoms (all electrons):
              1          2          3          4
     1  S   15.379036  -0.026604   0.131989   0.011540
     2  O   -0.026604   8.426852   0.010542   0.208429
     3  O    0.131989   0.010542   8.237703  -0.001517
     4  H    0.011540   0.208429  -0.001517   0.287653
 Mulliken atomic charges:
              1
     1  S    0.504040
     2  O   -0.619219
     3  O   -0.378716
     4  H    0.493895
 Sum of Mulliken atomic charges =   0.00000
 Mulliken charges with hydrogens summed into heavy atoms:
              1
     1  S    0.504040
     2  O   -0.125323
     3  O   -0.378716
 Sum of Mulliken charges with hydrogens summed into heavy atoms =   0.00000
          Atomic-Atomic Spin Densities.
              1          2          3          4
     1  S    0.946042  -0.105778  -0.198834  -0.000085
     2  O   -0.105778   0.152092   0.018583  -0.003948
     3  O   -0.198834   0.018583   0.478297  -0.000685
     4  H   -0.000085  -0.003948  -0.000685   0.005063
 Mulliken atomic spin densities:
              1
     1  S    0.641345
     2  O    0.060949
     3  O    0.297360
     4  H    0.000345
 Sum of Mulliken atomic spin densities =   1.00000
 Electronic spatial extent (au):  <R**2>=            178.6352
 Charge=              0.0000 electrons
 Dipole moment (field-independent basis, Debye):
    X=              1.3403    Y=              0.1685    Z=              0.4967  Tot=              1.4392
 Quadrupole moment (field-independent basis, Debye-Ang):
   XX=            -26.5672   YY=            -21.0597   ZZ=            -23.6308
   XY=              3.4798   XZ=              0.6571   YZ=              0.7788
 Traceless Quadrupole moment (field-independent basis, Debye-Ang):
   XX=             -2.8146   YY=              2.6929   ZZ=              0.1218
   XY=              3.4798   XZ=              0.6571   YZ=              0.7788
 Octapole moment (field-independent basis, Debye-Ang**2):
  XXX=              1.7924  YYY=              5.2700  ZZZ=             -0.0200  XYY=              4.6828
  XXY=              1.3307  XXZ=              0.8442  XZZ=              0.1043  YZZ=              1.1861
  YYZ=              0.9111  XYZ=              0.9600
 Hexadecapole moment (field-independent basis, Debye-Ang**3):
 XXXX=           -143.2711 YYYY=            -50.5040 ZZZZ=            -24.9357 XXXY=              6.5169
 XXXZ=              1.2057 YYYX=              6.4546 YYYZ=              1.2967 ZZZX=              0.3541
 ZZZY=              0.5406 XXYY=            -26.6103 XXZZ=            -27.3247 YYZZ=            -13.6621
 XXYZ=              1.3587 YYXZ=              1.1477 ZZXY=              0.4517
 N-N= 1.112217149271D+02 E-N=-2.281263963923D+03  KE= 8.210252372044D+02
                          Isotropic Fermi Contact Couplings
        Atom                 a.u.       MegaHertz       Gauss      10(-4) cm-1
     1  S(33)              0.10500      36.06445      12.86869      12.02981
     2  O(17)              0.02079     -12.60452      -4.49761      -4.20441
     3  O(17)              0.05211     -31.58720     -11.27110     -10.53636
     4  H(1)               0.00022       0.98294       0.35074       0.32787
 --------------------------------------------------------
       Center         ----  Spin Dipole Couplings  ----
                      3XX-RR        3YY-RR        3ZZ-RR
 --------------------------------------------------------
     1   Atom       -1.511098     -1.622685      3.133783
     2   Atom       -0.245452     -0.212225      0.457676
     3   Atom       -0.772649     -0.774430      1.547079
     4   Atom       -0.009844      0.021068     -0.011223
 --------------------------------------------------------
                        XY            XZ            YZ
 --------------------------------------------------------
     1   Atom       -0.002084     -0.049972      0.174550
     2   Atom        0.010041      0.007679     -0.105011
     3   Atom        0.004802      0.077238      0.043038
     4   Atom        0.005659      0.001212      0.004448
 --------------------------------------------------------


 ---------------------------------------------------------------------------------
              Anisotropic Spin Dipole Couplings in Principal Axis System
 ---------------------------------------------------------------------------------

       Atom             a.u.   MegaHertz   Gauss  10(-4) cm-1        Axes

              Baa    -1.6291   -66.791   -23.833   -22.279  0.0021  0.9993 -0.0366
     1 S(33)  Bbb    -1.5116   -61.976   -22.114   -20.673  0.9999 -0.0018  0.0108
              Bcc     3.1407   128.767    45.947    42.952 -0.0108  0.0366  0.9993
 
              Baa    -0.2509    18.157     6.479     6.057  0.8980 -0.4337 -0.0740
     2 O(17)  Bbb    -0.2229    16.127     5.754     5.379  0.4399  0.8883  0.1321
              Bcc     0.4738   -34.284   -12.233   -11.436  0.0084 -0.1512  0.9885
 
              Baa    -0.7786    56.338    20.103    18.792 -0.7064  0.7077  0.0104
     3 O(17)  Bbb    -0.7719    55.851    19.929    18.630  0.7070  0.7063 -0.0367
              Bcc     1.5504  -112.189   -40.032   -37.422  0.0333  0.0186  0.9993
 
              Baa    -0.0120    -6.399    -2.283    -2.135 -0.3561 -0.0644  0.9322
     4 H(1)   Bbb    -0.0107    -5.708    -2.037    -1.904  0.9180 -0.2106  0.3361
              Bcc     0.0227    12.108     4.320     4.039  0.1747  0.9754  0.1342
 

 ---------------------------------------------------------------------------------

 1\1\ CPUSERV-QCEXNOD10\SP\UwB97XD\6-311+G(3df)\H1O2S1(2)\ROOT\21-Aug-2
 025\0\\#sp wB97XD/6-311+G(3df)\\Optimizacion del hoso\\0,2\S,0,-0.1383
 43,-0.465008,0.014808\O,0,1.324132,0.246971,-0.04254\O,0,-1.202636,0.5
 36438,-0.018537\H,0,1.260521,1.169845,0.236681\\Version=EM64L-G09RevC.
 01\State=2-A\HF=-549.2211114\S2=0.755505\S2-1=0.\S2A=0.750021\RMSD=6.3
 07e-09\Dipole=0.5274804,0.0651179,0.1953297\Quadrupole=-2.0816624,1.99
 09018,0.0907606,2.5955495,0.4913596,0.5781636\PG=C01 [X(H1O2S1)]\\@


 IF YOU PERCEIVE THAT THERE ARE FOUR POSSIBLE WAYS IN
 WHICH A PROCEDURE CAN GO WRONG AND CIRCUMVENT THESE, 
 THEN A FIFTH WAY WILL DEVELOP.

                              -- MURPHY'S TWELFTH LAW
 Job cpu time:  0 days  0 hours  3 minutes 29.3 seconds.
 File lengths (MBytes):  RWF=     21 Int=      0 D2E=      0 Chk=      2 Scr=      1
 Normal termination of Gaussian 09 at Thu Aug 21 01:11:05 2025.
