 Entering Gaussian System, Link 0=g09
 Initial command:
 /soft/g09.c01/g09/l1.exe /scr/macias/389565.qcexmaster_vib6_0.15/Gau-2465.inp -scrdir=/scr/macias/389565.qcexmaster_vib6_0.15/
 Entering Link 1 = /soft/g09.c01/g09/l1.exe PID=      2469.
  
 Copyright (c) 1988,1990,1992,1993,1995,1998,2003,2009,2011,
            Gaussian, Inc.  All Rights Reserved.
  
 This is part of the Gaussian(R) 09 program.  It is based on
 the Gaussian(R) 03 system (copyright 2003, Gaussian, Inc.),
 the Gaussian(R) 98 system (copyright 1998, Gaussian, Inc.),
 the Gaussian(R) 94 system (copyright 1995, Gaussian, Inc.),
 the Gaussian 92(TM) system (copyright 1992, Gaussian, Inc.),
 the Gaussian 90(TM) system (copyright 1990, Gaussian, Inc.),
 the Gaussian 88(TM) system (copyright 1988, Gaussian, Inc.),
 the Gaussian 86(TM) system (copyright 1986, Carnegie Mellon
 University), and the Gaussian 82(TM) system (copyright 1983,
 Carnegie Mellon University). Gaussian is a federally registered
 trademark of Gaussian, Inc.
  
 This software contains proprietary and confidential information,
 including trade secrets, belonging to Gaussian, Inc.
  
 This software is provided under written license and may be
 used, copied, transmitted, or stored only in accord with that
 written license.
  
 The following legend is applicable only to US Government
 contracts under FAR:
  
                    RESTRICTED RIGHTS LEGEND
  
 Use, reproduction and disclosure by the US Government is
 subject to restrictions as set forth in subparagraphs (a)
 and (c) of the Commercial Computer Software - Restricted
 Rights clause in FAR 52.227-19.
  
 Gaussian, Inc.
 340 Quinnipiac St., Bldg. 40, Wallingford CT 06492
  
  
 ---------------------------------------------------------------
 Warning -- This program may not be used in any manner that
 competes with the business of Gaussian, Inc. or will provide
 assistance to any competitor of Gaussian, Inc.  The licensee
 of this program is prohibited from giving any competitor of
 Gaussian, Inc. access to this program.  By using this program,
 the user acknowledges that Gaussian, Inc. is engaged in the
 business of creating and licensing software in the field of
 computational chemistry and represents and warrants to the
 licensee that it is not a competitor of Gaussian, Inc. and that
 it will not use this program in any manner prohibited above.
 ---------------------------------------------------------------
  

 Cite this work as:
 Gaussian 09, Revision C.01,
 M. J. Frisch, G. W. Trucks, H. B. Schlegel, G. E. Scuseria, 
 M. A. Robb, J. R. Cheeseman, G. Scalmani, V. Barone, B. Mennucci, 
 G. A. Petersson, H. Nakatsuji, M. Caricato, X. Li, H. P. Hratchian, 
 A. F. Izmaylov, J. Bloino, G. Zheng, J. L. Sonnenberg, M. Hada, 
 M. Ehara, K. Toyota, R. Fukuda, J. Hasegawa, M. Ishida, T. Nakajima, 
 Y. Honda, O. Kitao, H. Nakai, T. Vreven, J. A. Montgomery, Jr., 
 J. E. Peralta, F. Ogliaro, M. Bearpark, J. J. Heyd, E. Brothers, 
 K. N. Kudin, V. N. Staroverov, T. Keith, R. Kobayashi, J. Normand, 
 K. Raghavachari, A. Rendell, J. C. Burant, S. S. Iyengar, J. Tomasi, 
 M. Cossi, N. Rega, J. M. Millam, M. Klene, J. E. Knox, J. B. Cross, 
 V. Bakken, C. Adamo, J. Jaramillo, R. Gomperts, R. E. Stratmann, 
 O. Yazyev, A. J. Austin, R. Cammi, C. Pomelli, J. W. Ochterski, 
 R. L. Martin, K. Morokuma, V. G. Zakrzewski, G. A. Voth, 
 P. Salvador, J. J. Dannenberg, S. Dapprich, A. D. Daniels, 
 O. Farkas, J. B. Foresman, J. V. Ortiz, J. Cioslowski, 
 and D. J. Fox, Gaussian, Inc., Wallingford CT, 2010.
 
  
 -----  Compilado por  -----------------------------------------
  
  Servicio de Calculo | Servicio de Informatica U. de Valencia
     calculo@uv.es    |  E-46100 Burjassot (Valencia) SPAIN
  
 ---------------------------------------------------------------
  
 ******************************************
 Gaussian 09:  EM64L-G09RevC.01 23-Sep-2011
                21-Aug-2025 
 ******************************************
 %chk=opt_freq.chk
 %nproc=6
 Will use up to    6 processors via shared memory.
 %mem=20GB
 Default route:  CacheSize=131072
 -----------------------
 #sp wB97XD/6-311+G(3df)
 -----------------------
 1/4=131072,38=1/1;
 2/4=131072,12=2,17=6,18=5,40=1/2;
 3/4=131072,5=4,6=6,7=16,11=2,16=1,25=1,30=1,74=-58/1,2,3;
 4/4=131072/1;
 5/4=131072,5=2,38=5/2;
 6/4=131072,7=2,8=2,9=2,10=2,28=1/1;
 99/4=131072,5=1,9=1/99;
 ---------------------
 Optimizacion del hoso
 ---------------------
 Charge =  0 Multiplicity = 2
 Symbolic Z-Matrix:
 S                    -0.13884  -0.47401   0.01631 
 O                     1.31013   0.26547  -0.04204 
 O                    -1.18564   0.54544  -0.02004 
 H                     1.23602   1.02635   0.21318 
 
                          Input orientation:                          
 ---------------------------------------------------------------------
 Center     Atomic      Atomic             Coordinates (Angstroms)
 Number     Number       Type             X           Y           Z
 ---------------------------------------------------------------------
      1         16           0       -0.138843   -0.474008    0.016308
      2          8           0        1.310132    0.265471   -0.042040
      3          8           0       -1.185636    0.545438   -0.020037
      4          1           0        1.236021    1.026345    0.213181
 ---------------------------------------------------------------------
                    Distance matrix (angstroms):
                    1          2          3          4
     1  S    0.000000
     2  O    1.627809   0.000000
     3  O    1.461632   2.511518   0.000000
     4  H    2.044522   0.805953   2.479936   0.000000
 Stoichiometry    HO2S(2)
 Framework group  C1[X(HO2S)]
 Deg. of freedom     6
 Full point group                 C1      NOp   1
 Largest Abelian subgroup         C1      NOp   1
 Largest concise Abelian subgroup C1      NOp   1
                         Standard orientation:                         
 ---------------------------------------------------------------------
 Center     Atomic      Atomic             Coordinates (Angstroms)
 Number     Number       Type             X           Y           Z
 ---------------------------------------------------------------------
      1         16           0       -0.137470   -0.472526    0.011741
      2          8           0        1.308874    0.272758   -0.037273
      3          8           0       -1.187907    0.543477   -0.014475
      4          1           0        1.231795    1.030544    0.226127
 ---------------------------------------------------------------------
 Rotational constants (GHZ):     35.7311949      9.6811189      7.6345478
 Standard basis: 6-311+G(3df) (5D, 7F)
 There are   128 symmetry adapted basis functions of A   symmetry.
 Integral buffers will be    131072 words long.
 Raffenetti 2 integral format.
 Two-electron integral symmetry is turned on.
   128 basis functions,   193 primitive gaussians,   146 cartesian basis functions
    17 alpha electrons       16 beta electrons
       nuclear repulsion energy       112.5385783699 Hartrees.
 NAtoms=    4 NActive=    4 NUniq=    4 SFac= 1.00D+00 NAtFMM=   60 NAOKFM=F Big=F
 Nuclear repulsion after empirical dispersion term =      112.5383417516 Hartrees.
 One-electron integrals computed using PRISM.
 NBasis=   128 RedAO= T  NBF=   128
 NBsUse=   128 1.00D-06 NBFU=   128
 Harris functional with IExCor= 4639 diagonalized for initial guess.
 ExpMin= 4.05D-02 ExpMax= 9.34D+04 ExpMxC= 3.17D+03 IAcc=2 IRadAn=         4 AccDes= 0.00D+00
 HarFok:  IExCor= 4639 AccDes= 0.00D+00 IRadAn=         4 IDoV= 1
 ScaDFX=  1.000000  1.000000  1.000000  1.000000
 FoFCou: FMM=F IPFlag=           0 FMFlag=      100000 FMFlg1=           0
         NFxFlg=           0 DoJE=T BraDBF=F KetDBF=T FulRan=T
         Omega=  0.000000  0.000000  1.000000  0.000000  0.000000 ICntrl=     500 IOpCl=  0
         NMat0=    1 NMatS0=    1 NMatT0=    0 NMatD0=    1 NMtDS0=    0 NMtDT0=    0
         I1Cent=           4 NGrid=           0.
 Petite list used in FoFCou.
 Initial guess orbital symmetries:
 Alpha Orbitals:
       Occupied  (A) (A) (A) (A) (A) (A) (A) (A) (A) (A) (A) (A)
                 (A) (A) (A) (A) (A)
       Virtual   (A) (A) (A) (A) (A) (A) (A) (A) (A) (A) (A) (A)
                 (A) (A) (A) (A) (A) (A) (A) (A) (A) (A) (A) (A)
                 (A) (A) (A) (A) (A) (A) (A) (A) (A) (A) (A) (A)
                 (A) (A) (A) (A) (A) (A) (A) (A) (A) (A) (A) (A)
                 (A) (A) (A) (A) (A) (A) (A) (A) (A) (A) (A) (A)
                 (A) (A) (A) (A) (A) (A) (A) (A) (A) (A) (A) (A)
                 (A) (A) (A) (A) (A) (A) (A) (A) (A) (A) (A) (A)
                 (A) (A) (A) (A) (A) (A) (A) (A) (A) (A) (A) (A)
                 (A) (A) (A) (A) (A) (A) (A) (A) (A) (A) (A) (A)
                 (A) (A) (A)
 Beta  Orbitals:
       Occupied  (A) (A) (A) (A) (A) (A) (A) (A) (A) (A) (A) (A)
                 (A) (A) (A) (A)
       Virtual   (A) (A) (A) (A) (A) (A) (A) (A) (A) (A) (A) (A)
                 (A) (A) (A) (A) (A) (A) (A) (A) (A) (A) (A) (A)
                 (A) (A) (A) (A) (A) (A) (A) (A) (A) (A) (A) (A)
                 (A) (A) (A) (A) (A) (A) (A) (A) (A) (A) (A) (A)
                 (A) (A) (A) (A) (A) (A) (A) (A) (A) (A) (A) (A)
                 (A) (A) (A) (A) (A) (A) (A) (A) (A) (A) (A) (A)
                 (A) (A) (A) (A) (A) (A) (A) (A) (A) (A) (A) (A)
                 (A) (A) (A) (A) (A) (A) (A) (A) (A) (A) (A) (A)
                 (A) (A) (A) (A) (A) (A) (A) (A) (A) (A) (A) (A)
                 (A) (A) (A) (A)
 The electronic state of the initial guess is 2-A.
 Initial guess <Sx>= 0.0000 <Sy>= 0.0000 <Sz>= 0.5000 <S**2>= 0.7500 S= 0.5000
 Requested convergence on RMS density matrix=1.00D-08 within 128 cycles.
 Requested convergence on MAX density matrix=1.00D-06.
 Requested convergence on             energy=1.00D-06.
 No special actions if energy rises.
 FoFJK:  IHMeth= 1 ICntrl=     0 DoSepK=T KAlg= 1 I1Cent= 0 FoldK=F
 FoFJK:  IHMeth= 1 ICntrl=     0 DoSepK=T KAlg= 1 I1Cent= 0 FoldK=F
 FoFJK:  IHMeth= 1 ICntrl=     0 DoSepK=T KAlg= 1 I1Cent= 0 FoldK=F
 FoFJK:  IHMeth= 1 ICntrl=     0 DoSepK=T KAlg= 1 I1Cent= 0 FoldK=F
 FoFJK:  IHMeth= 1 ICntrl=     0 DoSepK=T KAlg= 1 I1Cent= 0 FoldK=F
 FoFJK:  IHMeth= 1 ICntrl=     0 DoSepK=T KAlg= 1 I1Cent= 0 FoldK=F
 FoFJK:  IHMeth= 1 ICntrl=     0 DoSepK=T KAlg= 1 I1Cent= 0 FoldK=F
 FoFJK:  IHMeth= 1 ICntrl=     0 DoSepK=T KAlg= 1 I1Cent= 0 FoldK=F
 FoFJK:  IHMeth= 1 ICntrl=     0 DoSepK=T KAlg= 1 I1Cent= 0 FoldK=F
 FoFJK:  IHMeth= 1 ICntrl=     0 DoSepK=T KAlg= 1 I1Cent= 0 FoldK=F
 FoFJK:  IHMeth= 1 ICntrl=     0 DoSepK=T KAlg= 1 I1Cent= 0 FoldK=F
 FoFJK:  IHMeth= 1 ICntrl=     0 DoSepK=T KAlg= 1 I1Cent= 0 FoldK=F
 FoFJK:  IHMeth= 1 ICntrl=     0 DoSepK=T KAlg= 1 I1Cent= 0 FoldK=F
 FoFJK:  IHMeth= 1 ICntrl=     0 DoSepK=T KAlg= 1 I1Cent= 0 FoldK=F
 FoFJK:  IHMeth= 1 ICntrl=     0 DoSepK=T KAlg= 1 I1Cent= 0 FoldK=F
 SCF Done:  E(UwB97XD) =  -549.185850094     A.U. after   15 cycles
             Convg  =    0.6964D-08             -V/T =  2.0009
 <Sx>= 0.0000 <Sy>= 0.0000 <Sz>= 0.5000 <S**2>= 0.7555 S= 0.5028
 <L.S>= 0.000000000000E+00
 Annihilation of the first spin contaminant:
 S**2 before annihilation     0.7555,   after     0.7500

 **********************************************************************

            Population analysis using the SCF density.

 **********************************************************************

 Orbital symmetries:
 Alpha Orbitals:
       Occupied  (A) (A) (A) (A) (A) (A) (A) (A) (A) (A) (A) (A)
                 (A) (A) (A) (A) (A)
       Virtual   (A) (A) (A) (A) (A) (A) (A) (A) (A) (A) (A) (A)
                 (A) (A) (A) (A) (A) (A) (A) (A) (A) (A) (A) (A)
                 (A) (A) (A) (A) (A) (A) (A) (A) (A) (A) (A) (A)
                 (A) (A) (A) (A) (A) (A) (A) (A) (A) (A) (A) (A)
                 (A) (A) (A) (A) (A) (A) (A) (A) (A) (A) (A) (A)
                 (A) (A) (A) (A) (A) (A) (A) (A) (A) (A) (A) (A)
                 (A) (A) (A) (A) (A) (A) (A) (A) (A) (A) (A) (A)
                 (A) (A) (A) (A) (A) (A) (A) (A) (A) (A) (A) (A)
                 (A) (A) (A) (A) (A) (A) (A) (A) (A) (A) (A) (A)
                 (A) (A) (A)
 Beta  Orbitals:
       Occupied  (A) (A) (A) (A) (A) (A) (A) (A) (A) (A) (A) (A)
                 (A) (A) (A) (A)
       Virtual   (A) (A) (A) (A) (A) (A) (A) (A) (A) (A) (A) (A)
                 (A) (A) (A) (A) (A) (A) (A) (A) (A) (A) (A) (A)
                 (A) (A) (A) (A) (A) (A) (A) (A) (A) (A) (A) (A)
                 (A) (A) (A) (A) (A) (A) (A) (A) (A) (A) (A) (A)
                 (A) (A) (A) (A) (A) (A) (A) (A) (A) (A) (A) (A)
                 (A) (A) (A) (A) (A) (A) (A) (A) (A) (A) (A) (A)
                 (A) (A) (A) (A) (A) (A) (A) (A) (A) (A) (A) (A)
                 (A) (A) (A) (A) (A) (A) (A) (A) (A) (A) (A) (A)
                 (A) (A) (A) (A) (A) (A) (A) (A) (A) (A) (A) (A)
                 (A) (A) (A) (A)
 The electronic state is 2-A.
 Alpha  occ. eigenvalues --  -89.15240 -19.30338 -19.28672  -8.17991  -6.12929
 Alpha  occ. eigenvalues --   -6.12677  -6.12323  -1.25045  -1.16752  -0.82509
 Alpha  occ. eigenvalues --   -0.64716  -0.57772  -0.56948  -0.51138  -0.47699
 Alpha  occ. eigenvalues --   -0.42867  -0.31324
 Alpha virt. eigenvalues --    0.05523   0.06539   0.07451   0.09329   0.11785
 Alpha virt. eigenvalues --    0.14078   0.20644   0.23280   0.24540   0.24975
 Alpha virt. eigenvalues --    0.26277   0.28295   0.30730   0.32505   0.32772
 Alpha virt. eigenvalues --    0.35471   0.36347   0.37816   0.39148   0.40287
 Alpha virt. eigenvalues --    0.41337   0.50556   0.67160   0.69922   0.78099
 Alpha virt. eigenvalues --    0.81104   0.86495   0.87743   0.93863   0.95686
 Alpha virt. eigenvalues --    0.96462   0.97387   0.99435   1.02569   1.05386
 Alpha virt. eigenvalues --    1.08808   1.10135   1.13193   1.13611   1.16922
 Alpha virt. eigenvalues --    1.21483   1.27367   1.33107   1.37678   1.40011
 Alpha virt. eigenvalues --    1.44933   1.66667   1.67934   1.74286   1.81781
 Alpha virt. eigenvalues --    1.92927   2.01583   2.07756   2.08617   2.12625
 Alpha virt. eigenvalues --    2.21229   2.31618   2.36286   2.49309   3.35088
 Alpha virt. eigenvalues --    3.41153   3.44581   3.46777   3.49444   3.54914
 Alpha virt. eigenvalues --    3.55954   3.65826   3.70161   3.94196   4.52703
 Alpha virt. eigenvalues --    4.56488   4.61302   4.69724   4.90330   4.94629
 Alpha virt. eigenvalues --    5.01945   5.02944   5.03542   5.06648   5.08858
 Alpha virt. eigenvalues --    5.09578   5.11144   5.15709   5.23072   5.24083
 Alpha virt. eigenvalues --    5.42364   5.46277   5.52698   5.59339   5.67766
 Alpha virt. eigenvalues --    5.84492   5.94893   6.29196   6.58833   8.77106
 Alpha virt. eigenvalues --   14.31645  14.35257  14.36804  14.39115  14.41267
 Alpha virt. eigenvalues --   14.45424  14.47643  14.56851  14.70281  14.73149
 Alpha virt. eigenvalues --   17.35880  17.61296  17.89649  50.04854  50.10806
 Alpha virt. eigenvalues --  189.81845
  Beta  occ. eigenvalues --  -89.14855 -19.30108 -19.27772  -8.17647  -6.12701
  Beta  occ. eigenvalues --   -6.12116  -6.11439  -1.24193  -1.15039  -0.80440
  Beta  occ. eigenvalues --   -0.63193  -0.56969  -0.53578  -0.49090  -0.43961
  Beta  occ. eigenvalues --   -0.41634
  Beta virt. eigenvalues --   -0.04165   0.06091   0.06901   0.07917   0.09930
  Beta virt. eigenvalues --    0.12520   0.15056   0.20748   0.23533   0.24881
  Beta virt. eigenvalues --    0.25230   0.26770   0.28628   0.30989   0.32742
  Beta virt. eigenvalues --    0.33892   0.35721   0.36835   0.38481   0.40490
  Beta virt. eigenvalues --    0.40770   0.42099   0.51166   0.67581   0.70229
  Beta virt. eigenvalues --    0.78623   0.81403   0.86904   0.88584   0.94471
  Beta virt. eigenvalues --    0.96078   0.97548   0.98393   1.00145   1.03462
  Beta virt. eigenvalues --    1.06118   1.09604   1.12154   1.13722   1.13941
  Beta virt. eigenvalues --    1.17672   1.22768   1.27900   1.34464   1.38458
  Beta virt. eigenvalues --    1.40387   1.45311   1.69697   1.69968   1.75910
  Beta virt. eigenvalues --    1.83323   1.93735   2.03023   2.08504   2.10952
  Beta virt. eigenvalues --    2.12924   2.21761   2.32113   2.37248   2.49723
  Beta virt. eigenvalues --    3.35879   3.42464   3.46741   3.48089   3.50892
  Beta virt. eigenvalues --    3.55929   3.58170   3.66495   3.71383   3.94454
  Beta virt. eigenvalues --    4.53235   4.56631   4.62182   4.70211   4.90900
  Beta virt. eigenvalues --    4.95140   5.02426   5.03516   5.04614   5.08073
  Beta virt. eigenvalues --    5.11453   5.12677   5.13125   5.16572   5.23986
  Beta virt. eigenvalues --    5.25469   5.42913   5.46818   5.53463   5.60061
  Beta virt. eigenvalues --    5.68964   5.86245   5.95414   6.29420   6.59222
  Beta virt. eigenvalues --    8.77471  14.32881  14.37526  14.40326  14.40821
  Beta virt. eigenvalues --   14.43450  14.48392  14.49374  14.57998  14.71946
  Beta virt. eigenvalues --   14.73872  17.37272  17.61586  17.89971  50.05080
  Beta virt. eigenvalues --   50.11589 189.82149
          Condensed to atoms (all electrons):
              1          2          3          4
     1  S   15.366948  -0.028949   0.138576   0.014611
     2  O   -0.028949   8.441031   0.004838   0.224482
     3  O    0.138576   0.004838   8.230386  -0.001541
     4  H    0.014611   0.224482  -0.001541   0.257602
 Mulliken atomic charges:
              1
     1  S    0.508814
     2  O   -0.641401
     3  O   -0.372258
     4  H    0.504846
 Sum of Mulliken atomic charges =   0.00000
 Mulliken charges with hydrogens summed into heavy atoms:
              1
     1  S    0.508814
     2  O   -0.136556
     3  O   -0.372258
 Sum of Mulliken charges with hydrogens summed into heavy atoms =   0.00000
          Atomic-Atomic Spin Densities.
              1          2          3          4
     1  S    0.937128  -0.101288  -0.197081   0.001444
     2  O   -0.101288   0.143031   0.018539  -0.005431
     3  O   -0.197081   0.018539   0.484173  -0.000823
     4  H    0.001444  -0.005431  -0.000823   0.004949
 Mulliken atomic spin densities:
              1
     1  S    0.640202
     2  O    0.054852
     3  O    0.304807
     4  H    0.000139
 Sum of Mulliken atomic spin densities =   1.00000
 Electronic spatial extent (au):  <R**2>=            176.1418
 Charge=              0.0000 electrons
 Dipole moment (field-independent basis, Debye):
    X=              1.1856    Y=             -0.1455    Z=              0.4776  Tot=              1.2864
 Quadrupole moment (field-independent basis, Debye-Ang):
   XX=            -26.4804   YY=            -21.4501   ZZ=            -23.4071
   XY=              3.0777   XZ=              0.6579   YZ=              0.7112
 Traceless Quadrupole moment (field-independent basis, Debye-Ang):
   XX=             -2.7012   YY=              2.3291   ZZ=              0.3721
   XY=              3.0777   XZ=              0.6579   YZ=              0.7112
 Octapole moment (field-independent basis, Debye-Ang**2):
  XXX=              1.8174  YYY=              4.3718  ZZZ=              0.0482  XYY=              3.9622
  XXY=              0.8635  XXZ=              0.8189  XZZ=              0.2908  YZZ=              1.2552
  YYZ=              0.7505  XYZ=              0.8639
 Hexadecapole moment (field-independent basis, Debye-Ang**3):
 XXXX=           -139.2896 YYYY=            -51.6035 ZZZZ=            -24.4841 XXXY=              5.9465
 XXXZ=              1.2682 YYYX=              5.2076 YYYZ=              1.0287 ZZZX=              0.4276
 ZZZY=              0.5710 XXYY=            -26.8518 XXZZ=            -26.4507 YYZZ=            -13.5337
 XXYZ=              1.2321 YYXZ=              0.9436 ZZXY=              0.5082
 N-N= 1.125383417516D+02 E-N=-2.285293785192D+03  KE= 8.216310028452D+02
                          Isotropic Fermi Contact Couplings
        Atom                 a.u.       MegaHertz       Gauss      10(-4) cm-1
     1  S(33)              0.10268      35.26661      12.58400      11.76367
     2  O(17)              0.01801     -10.91586      -3.89505      -3.64114
     3  O(17)              0.05282     -32.01917     -11.42524     -10.68045
     4  H(1)               0.00028       1.25383       0.44740       0.41823
 --------------------------------------------------------
       Center         ----  Spin Dipole Couplings  ----
                      3XX-RR        3YY-RR        3ZZ-RR
 --------------------------------------------------------
     1   Atom       -1.505345     -1.620171      3.125516
     2   Atom       -0.227561     -0.197870      0.425430
     3   Atom       -0.784836     -0.789584      1.574420
     4   Atom       -0.014788      0.025684     -0.010896
 --------------------------------------------------------
                        XY            XZ            YZ
 --------------------------------------------------------
     1   Atom       -0.003680     -0.054920      0.135519
     2   Atom        0.007288      0.007636     -0.098801
     3   Atom        0.005657      0.087157      0.034920
     4   Atom        0.004008      0.001499      0.004299
 --------------------------------------------------------


 ---------------------------------------------------------------------------------
              Anisotropic Spin Dipole Couplings in Principal Axis System
 ---------------------------------------------------------------------------------

       Atom             a.u.   MegaHertz   Gauss  10(-4) cm-1        Axes

              Baa    -1.6241   -66.586   -23.759   -22.211  0.0179  0.9994 -0.0283
     1 S(33)  Bbb    -1.5060   -61.743   -22.031   -20.595  0.9998 -0.0175  0.0124
              Bcc     3.1300   128.329    45.791    42.806 -0.0119  0.0285  0.9995
 
              Baa    -0.2315    16.748     5.976     5.586  0.9093 -0.4098 -0.0722
     2 O(17)  Bbb    -0.2093    15.147     5.405     5.052  0.4160  0.8993  0.1350
              Bcc     0.4408   -31.894   -11.381   -10.639  0.0096 -0.1528  0.9882
 
              Baa    -0.7936    57.422    20.489    19.154 -0.6209  0.7838  0.0113
     3 O(17)  Bbb    -0.7846    56.773    20.258    18.937  0.7830  0.6208 -0.0381
              Bcc     1.5782  -114.194   -40.747   -38.091  0.0369  0.0148  0.9992
 
              Baa    -0.0155    -8.250    -2.944    -2.752  0.9650 -0.0676 -0.2532
     4 H(1)   Bbb    -0.0111    -5.943    -2.121    -1.982  0.2423 -0.1385  0.9603
              Bcc     0.0266    14.193     5.064     4.734  0.0999  0.9881  0.1173
 

 ---------------------------------------------------------------------------------

 1\1\ CPUSERV-QCEXNOD03\SP\UwB97XD\6-311+G(3df)\H1O2S1(2)\ROOT\21-Aug-2
 025\0\\#sp wB97XD/6-311+G(3df)\\Optimizacion del hoso\\0,2\S,0,-0.1388
 43,-0.474008,0.016308\O,0,1.310132,0.265471,-0.04204\O,0,-1.185636,0.5
 45438,-0.020037\H,0,1.236021,1.026345,0.213181\\Version=EM64L-G09RevC.
 01\State=2-A\HF=-549.1858501\S2=0.755516\S2-1=0.\S2A=0.750021\RMSD=6.9
 64e-09\Dipole=0.4663977,-0.0568769,0.1881201\Quadrupole=-1.9908571,1.7
 263172,0.2645399,2.3072775,0.4680369,0.5091923\PG=C01 [X(H1O2S1)]\\@


 FOR THE NATURE OF THE CHEMICAL BOND
 IS THE PROBLEM AT THE HEART OF ALL CHEMISTRY.

                     -- BRYCE CRAWFORD, JR., 1953
 Job cpu time:  0 days  0 hours  3 minutes 10.3 seconds.
 File lengths (MBytes):  RWF=     21 Int=      0 D2E=      0 Chk=      2 Scr=      1
 Normal termination of Gaussian 09 at Thu Aug 21 00:36:08 2025.
