 Entering Gaussian System, Link 0=g09
 Initial command:
 /soft/g09.c01/g09/l1.exe /scr/macias/389598.qcexmaster_vib4_0.00/Gau-25690.inp -scrdir=/scr/macias/389598.qcexmaster_vib4_0.00/
 Entering Link 1 = /soft/g09.c01/g09/l1.exe PID=     25702.
  
 Copyright (c) 1988,1990,1992,1993,1995,1998,2003,2009,2011,
            Gaussian, Inc.  All Rights Reserved.
  
 This is part of the Gaussian(R) 09 program.  It is based on
 the Gaussian(R) 03 system (copyright 2003, Gaussian, Inc.),
 the Gaussian(R) 98 system (copyright 1998, Gaussian, Inc.),
 the Gaussian(R) 94 system (copyright 1995, Gaussian, Inc.),
 the Gaussian 92(TM) system (copyright 1992, Gaussian, Inc.),
 the Gaussian 90(TM) system (copyright 1990, Gaussian, Inc.),
 the Gaussian 88(TM) system (copyright 1988, Gaussian, Inc.),
 the Gaussian 86(TM) system (copyright 1986, Carnegie Mellon
 University), and the Gaussian 82(TM) system (copyright 1983,
 Carnegie Mellon University). Gaussian is a federally registered
 trademark of Gaussian, Inc.
  
 This software contains proprietary and confidential information,
 including trade secrets, belonging to Gaussian, Inc.
  
 This software is provided under written license and may be
 used, copied, transmitted, or stored only in accord with that
 written license.
  
 The following legend is applicable only to US Government
 contracts under FAR:
  
                    RESTRICTED RIGHTS LEGEND
  
 Use, reproduction and disclosure by the US Government is
 subject to restrictions as set forth in subparagraphs (a)
 and (c) of the Commercial Computer Software - Restricted
 Rights clause in FAR 52.227-19.
  
 Gaussian, Inc.
 340 Quinnipiac St., Bldg. 40, Wallingford CT 06492
  
  
 ---------------------------------------------------------------
 Warning -- This program may not be used in any manner that
 competes with the business of Gaussian, Inc. or will provide
 assistance to any competitor of Gaussian, Inc.  The licensee
 of this program is prohibited from giving any competitor of
 Gaussian, Inc. access to this program.  By using this program,
 the user acknowledges that Gaussian, Inc. is engaged in the
 business of creating and licensing software in the field of
 computational chemistry and represents and warrants to the
 licensee that it is not a competitor of Gaussian, Inc. and that
 it will not use this program in any manner prohibited above.
 ---------------------------------------------------------------
  

 Cite this work as:
 Gaussian 09, Revision C.01,
 M. J. Frisch, G. W. Trucks, H. B. Schlegel, G. E. Scuseria, 
 M. A. Robb, J. R. Cheeseman, G. Scalmani, V. Barone, B. Mennucci, 
 G. A. Petersson, H. Nakatsuji, M. Caricato, X. Li, H. P. Hratchian, 
 A. F. Izmaylov, J. Bloino, G. Zheng, J. L. Sonnenberg, M. Hada, 
 M. Ehara, K. Toyota, R. Fukuda, J. Hasegawa, M. Ishida, T. Nakajima, 
 Y. Honda, O. Kitao, H. Nakai, T. Vreven, J. A. Montgomery, Jr., 
 J. E. Peralta, F. Ogliaro, M. Bearpark, J. J. Heyd, E. Brothers, 
 K. N. Kudin, V. N. Staroverov, T. Keith, R. Kobayashi, J. Normand, 
 K. Raghavachari, A. Rendell, J. C. Burant, S. S. Iyengar, J. Tomasi, 
 M. Cossi, N. Rega, J. M. Millam, M. Klene, J. E. Knox, J. B. Cross, 
 V. Bakken, C. Adamo, J. Jaramillo, R. Gomperts, R. E. Stratmann, 
 O. Yazyev, A. J. Austin, R. Cammi, C. Pomelli, J. W. Ochterski, 
 R. L. Martin, K. Morokuma, V. G. Zakrzewski, G. A. Voth, 
 P. Salvador, J. J. Dannenberg, S. Dapprich, A. D. Daniels, 
 O. Farkas, J. B. Foresman, J. V. Ortiz, J. Cioslowski, 
 and D. J. Fox, Gaussian, Inc., Wallingford CT, 2010.
 
  
 -----  Compilado por  -----------------------------------------
  
  Servicio de Calculo | Servicio de Informatica U. de Valencia
     calculo@uv.es    |  E-46100 Burjassot (Valencia) SPAIN
  
 ---------------------------------------------------------------
  
 ******************************************
 Gaussian 09:  EM64L-G09RevC.01 23-Sep-2011
                20-Aug-2025 
 ******************************************
 %chk=opt_freq.chk
 %nproc=6
 Will use up to    6 processors via shared memory.
 %mem=20GB
 Default route:  CacheSize=131072
 -----------------------
 #sp wB97XD/6-311+G(3df)
 -----------------------
 1/4=131072,38=1/1;
 2/4=131072,12=2,17=6,18=5,40=1/2;
 3/4=131072,5=4,6=6,7=16,11=2,16=1,25=1,30=1,74=-58/1,2,3;
 4/4=131072/1;
 5/4=131072,5=2,38=5/2;
 6/4=131072,7=2,8=2,9=2,10=2,28=1/1;
 99/4=131072,5=1,9=1/99;
 ---------------------
 Optimizacion del hoso
 ---------------------
 Charge =  0 Multiplicity = 2
 Symbolic Z-Matrix:
 S                    -0.13884  -0.47401   0.01631 
 O                     1.31013   0.25647  -0.04504 
 O                    -1.18564   0.54544  -0.02004 
 H                     1.22552   1.16885   0.25968 
 
                          Input orientation:                          
 ---------------------------------------------------------------------
 Center     Atomic      Atomic             Coordinates (Angstroms)
 Number     Number       Type             X           Y           Z
 ---------------------------------------------------------------------
      1         16           0       -0.138843   -0.474008    0.016308
      2          8           0        1.310132    0.256471   -0.045040
      3          8           0       -1.185636    0.545438   -0.020037
      4          1           0        1.225521    1.168845    0.259681
 ---------------------------------------------------------------------
                    Distance matrix (angstroms):
                    1          2          3          4
     1  S    0.000000
     2  O    1.623851   0.000000
     3  O    1.461632   2.512565   0.000000
     4  H    2.149345   0.965629   2.506104   0.000000
 Stoichiometry    HO2S(2)
 Framework group  C1[X(HO2S)]
 Deg. of freedom     6
 Full point group                 C1      NOp   1
 Largest Abelian subgroup         C1      NOp   1
 Largest concise Abelian subgroup C1      NOp   1
                         Standard orientation:                         
 ---------------------------------------------------------------------
 Center     Atomic      Atomic             Coordinates (Angstroms)
 Number     Number       Type             X           Y           Z
 ---------------------------------------------------------------------
      1         16           0       -0.138843   -0.474008    0.016308
      2          8           0        1.310132    0.256471   -0.045040
      3          8           0       -1.185636    0.545439   -0.020037
      4          1           0        1.225521    1.168845    0.259681
 ---------------------------------------------------------------------
 Rotational constants (GHZ):     35.0761008      9.6799762      7.6104406
 Standard basis: 6-311+G(3df) (5D, 7F)
 There are   128 symmetry adapted basis functions of A   symmetry.
 Integral buffers will be    131072 words long.
 Raffenetti 2 integral format.
 Two-electron integral symmetry is turned on.
   128 basis functions,   193 primitive gaussians,   146 cartesian basis functions
    17 alpha electrons       16 beta electrons
       nuclear repulsion energy       111.5460054524 Hartrees.
 NAtoms=    4 NActive=    4 NUniq=    4 SFac= 1.00D+00 NAtFMM=   60 NAOKFM=F Big=F
 Nuclear repulsion after empirical dispersion term =      111.5457544596 Hartrees.
 One-electron integrals computed using PRISM.
 NBasis=   128 RedAO= T  NBF=   128
 NBsUse=   128 1.00D-06 NBFU=   128
 Harris functional with IExCor= 4639 diagonalized for initial guess.
 ExpMin= 4.05D-02 ExpMax= 9.34D+04 ExpMxC= 3.17D+03 IAcc=2 IRadAn=         4 AccDes= 0.00D+00
 HarFok:  IExCor= 4639 AccDes= 0.00D+00 IRadAn=         4 IDoV= 1
 ScaDFX=  1.000000  1.000000  1.000000  1.000000
 FoFCou: FMM=F IPFlag=           0 FMFlag=      100000 FMFlg1=           0
         NFxFlg=           0 DoJE=T BraDBF=F KetDBF=T FulRan=T
         Omega=  0.000000  0.000000  1.000000  0.000000  0.000000 ICntrl=     500 IOpCl=  0
         NMat0=    1 NMatS0=    1 NMatT0=    0 NMatD0=    1 NMtDS0=    0 NMtDT0=    0
         I1Cent=           4 NGrid=           0.
 Petite list used in FoFCou.
 Initial guess orbital symmetries:
 Alpha Orbitals:
       Occupied  (A) (A) (A) (A) (A) (A) (A) (A) (A) (A) (A) (A)
                 (A) (A) (A) (A) (A)
       Virtual   (A) (A) (A) (A) (A) (A) (A) (A) (A) (A) (A) (A)
                 (A) (A) (A) (A) (A) (A) (A) (A) (A) (A) (A) (A)
                 (A) (A) (A) (A) (A) (A) (A) (A) (A) (A) (A) (A)
                 (A) (A) (A) (A) (A) (A) (A) (A) (A) (A) (A) (A)
                 (A) (A) (A) (A) (A) (A) (A) (A) (A) (A) (A) (A)
                 (A) (A) (A) (A) (A) (A) (A) (A) (A) (A) (A) (A)
                 (A) (A) (A) (A) (A) (A) (A) (A) (A) (A) (A) (A)
                 (A) (A) (A) (A) (A) (A) (A) (A) (A) (A) (A) (A)
                 (A) (A) (A) (A) (A) (A) (A) (A) (A) (A) (A) (A)
                 (A) (A) (A)
 Beta  Orbitals:
       Occupied  (A) (A) (A) (A) (A) (A) (A) (A) (A) (A) (A) (A)
                 (A) (A) (A) (A)
       Virtual   (A) (A) (A) (A) (A) (A) (A) (A) (A) (A) (A) (A)
                 (A) (A) (A) (A) (A) (A) (A) (A) (A) (A) (A) (A)
                 (A) (A) (A) (A) (A) (A) (A) (A) (A) (A) (A) (A)
                 (A) (A) (A) (A) (A) (A) (A) (A) (A) (A) (A) (A)
                 (A) (A) (A) (A) (A) (A) (A) (A) (A) (A) (A) (A)
                 (A) (A) (A) (A) (A) (A) (A) (A) (A) (A) (A) (A)
                 (A) (A) (A) (A) (A) (A) (A) (A) (A) (A) (A) (A)
                 (A) (A) (A) (A) (A) (A) (A) (A) (A) (A) (A) (A)
                 (A) (A) (A) (A) (A) (A) (A) (A) (A) (A) (A) (A)
                 (A) (A) (A) (A)
 The electronic state of the initial guess is 2-A.
 Initial guess <Sx>= 0.0000 <Sy>= 0.0000 <Sz>= 0.5000 <S**2>= 0.7500 S= 0.5000
 Requested convergence on RMS density matrix=1.00D-08 within 128 cycles.
 Requested convergence on MAX density matrix=1.00D-06.
 Requested convergence on             energy=1.00D-06.
 No special actions if energy rises.
 FoFJK:  IHMeth= 1 ICntrl=     0 DoSepK=T KAlg= 1 I1Cent= 0 FoldK=F
 FoFJK:  IHMeth= 1 ICntrl=     0 DoSepK=T KAlg= 1 I1Cent= 0 FoldK=F
 FoFJK:  IHMeth= 1 ICntrl=     0 DoSepK=T KAlg= 1 I1Cent= 0 FoldK=F
 FoFJK:  IHMeth= 1 ICntrl=     0 DoSepK=T KAlg= 1 I1Cent= 0 FoldK=F
 FoFJK:  IHMeth= 1 ICntrl=     0 DoSepK=T KAlg= 1 I1Cent= 0 FoldK=F
 FoFJK:  IHMeth= 1 ICntrl=     0 DoSepK=T KAlg= 1 I1Cent= 0 FoldK=F
 FoFJK:  IHMeth= 1 ICntrl=     0 DoSepK=T KAlg= 1 I1Cent= 0 FoldK=F
 FoFJK:  IHMeth= 1 ICntrl=     0 DoSepK=T KAlg= 1 I1Cent= 0 FoldK=F
 FoFJK:  IHMeth= 1 ICntrl=     0 DoSepK=T KAlg= 1 I1Cent= 0 FoldK=F
 FoFJK:  IHMeth= 1 ICntrl=     0 DoSepK=T KAlg= 1 I1Cent= 0 FoldK=F
 FoFJK:  IHMeth= 1 ICntrl=     0 DoSepK=T KAlg= 1 I1Cent= 0 FoldK=F
 FoFJK:  IHMeth= 1 ICntrl=     0 DoSepK=T KAlg= 1 I1Cent= 0 FoldK=F
 FoFJK:  IHMeth= 1 ICntrl=     0 DoSepK=T KAlg= 1 I1Cent= 0 FoldK=F
 FoFJK:  IHMeth= 1 ICntrl=     0 DoSepK=T KAlg= 1 I1Cent= 0 FoldK=F
 FoFJK:  IHMeth= 1 ICntrl=     0 DoSepK=T KAlg= 1 I1Cent= 0 FoldK=F
 SCF Done:  E(UwB97XD) =  -549.221275767     A.U. after   15 cycles
             Convg  =    0.6477D-08             -V/T =  2.0016
 <Sx>= 0.0000 <Sy>= 0.0000 <Sz>= 0.5000 <S**2>= 0.7555 S= 0.5027
 <L.S>= 0.000000000000E+00
 Annihilation of the first spin contaminant:
 S**2 before annihilation     0.7555,   after     0.7500

 **********************************************************************

            Population analysis using the SCF density.

 **********************************************************************

 Orbital symmetries:
 Alpha Orbitals:
       Occupied  (A) (A) (A) (A) (A) (A) (A) (A) (A) (A) (A) (A)
                 (A) (A) (A) (A) (A)
       Virtual   (A) (A) (A) (A) (A) (A) (A) (A) (A) (A) (A) (A)
                 (A) (A) (A) (A) (A) (A) (A) (A) (A) (A) (A) (A)
                 (A) (A) (A) (A) (A) (A) (A) (A) (A) (A) (A) (A)
                 (A) (A) (A) (A) (A) (A) (A) (A) (A) (A) (A) (A)
                 (A) (A) (A) (A) (A) (A) (A) (A) (A) (A) (A) (A)
                 (A) (A) (A) (A) (A) (A) (A) (A) (A) (A) (A) (A)
                 (A) (A) (A) (A) (A) (A) (A) (A) (A) (A) (A) (A)
                 (A) (A) (A) (A) (A) (A) (A) (A) (A) (A) (A) (A)
                 (A) (A) (A) (A) (A) (A) (A) (A) (A) (A) (A) (A)
                 (A) (A) (A)
 Beta  Orbitals:
       Occupied  (A) (A) (A) (A) (A) (A) (A) (A) (A) (A) (A) (A)
                 (A) (A) (A) (A)
       Virtual   (A) (A) (A) (A) (A) (A) (A) (A) (A) (A) (A) (A)
                 (A) (A) (A) (A) (A) (A) (A) (A) (A) (A) (A) (A)
                 (A) (A) (A) (A) (A) (A) (A) (A) (A) (A) (A) (A)
                 (A) (A) (A) (A) (A) (A) (A) (A) (A) (A) (A) (A)
                 (A) (A) (A) (A) (A) (A) (A) (A) (A) (A) (A) (A)
                 (A) (A) (A) (A) (A) (A) (A) (A) (A) (A) (A) (A)
                 (A) (A) (A) (A) (A) (A) (A) (A) (A) (A) (A) (A)
                 (A) (A) (A) (A) (A) (A) (A) (A) (A) (A) (A) (A)
                 (A) (A) (A) (A) (A) (A) (A) (A) (A) (A) (A) (A)
                 (A) (A) (A) (A)
 The electronic state is 2-A.
 Alpha  occ. eigenvalues --  -89.14903 -19.31802 -19.28325  -8.17654  -6.12585
 Alpha  occ. eigenvalues --   -6.12347  -6.11990  -1.22496  -1.14979  -0.80074
 Alpha  occ. eigenvalues --   -0.63316  -0.57404  -0.56571  -0.50559  -0.47162
 Alpha  occ. eigenvalues --   -0.42503  -0.30913
 Alpha virt. eigenvalues --    0.05000   0.06777   0.07615   0.09371   0.11798
 Alpha virt. eigenvalues --    0.13392   0.19046   0.22471   0.24535   0.25005
 Alpha virt. eigenvalues --    0.26414   0.28129   0.30235   0.32488   0.32901
 Alpha virt. eigenvalues --    0.35540   0.36511   0.37974   0.39196   0.40410
 Alpha virt. eigenvalues --    0.41143   0.50827   0.56720   0.68291   0.78217
 Alpha virt. eigenvalues --    0.81164   0.87064   0.87889   0.93786   0.96177
 Alpha virt. eigenvalues --    0.96826   0.97591   1.00073   1.02196   1.05528
 Alpha virt. eigenvalues --    1.09105   1.10225   1.12781   1.14034   1.17434
 Alpha virt. eigenvalues --    1.22173   1.28689   1.33440   1.38149   1.40313
 Alpha virt. eigenvalues --    1.43272   1.66892   1.68203   1.74534   1.80986
 Alpha virt. eigenvalues --    1.92475   2.01817   2.08417   2.08862   2.13038
 Alpha virt. eigenvalues --    2.20372   2.31171   2.36525   2.44852   3.37311
 Alpha virt. eigenvalues --    3.42146   3.45140   3.47612   3.49979   3.55520
 Alpha virt. eigenvalues --    3.56676   3.63694   3.70432   3.71906   4.53258
 Alpha virt. eigenvalues --    4.57204   4.61577   4.70976   4.90883   4.98616
 Alpha virt. eigenvalues --    5.03313   5.03964   5.04229   5.06852   5.09139
 Alpha virt. eigenvalues --    5.09872   5.11303   5.16826   5.24146   5.24770
 Alpha virt. eigenvalues --    5.42103   5.46885   5.53677   5.57652   5.67261
 Alpha virt. eigenvalues --    5.72199   5.85357   6.00092   6.58665   8.77711
 Alpha virt. eigenvalues --   14.32288  14.35621  14.37163  14.39133  14.41313
 Alpha virt. eigenvalues --   14.45479  14.47059  14.49255  14.62546  14.70900
 Alpha virt. eigenvalues --   17.36208  17.61617  17.90120  50.02613  50.11106
 Alpha virt. eigenvalues --  189.82437
  Beta  occ. eigenvalues --  -89.14517 -19.31559 -19.27440  -8.17310  -6.12357
  Beta  occ. eigenvalues --   -6.11782  -6.11108  -1.21367  -1.13505  -0.77806
  Beta  occ. eigenvalues --   -0.61982  -0.56590  -0.53151  -0.48549  -0.43454
  Beta  occ. eigenvalues --   -0.41293
  Beta virt. eigenvalues --   -0.03845   0.05466   0.07126   0.08066   0.09970
  Beta virt. eigenvalues --    0.12749   0.14125   0.19346   0.22707   0.24862
  Beta virt. eigenvalues --    0.25196   0.26874   0.28515   0.30541   0.32651
  Beta virt. eigenvalues --    0.34049   0.35804   0.36987   0.38663   0.40514
  Beta virt. eigenvalues --    0.41044   0.41804   0.51420   0.56936   0.68803
  Beta virt. eigenvalues --    0.78755   0.81463   0.87543   0.88695   0.94405
  Beta virt. eigenvalues --    0.96556   0.97739   0.98639   1.00952   1.02977
  Beta virt. eigenvalues --    1.06279   1.09996   1.12180   1.13249   1.14421
  Beta virt. eigenvalues --    1.18275   1.23455   1.29160   1.34793   1.38952
  Beta virt. eigenvalues --    1.40671   1.43639   1.69999   1.70192   1.76161
  Beta virt. eigenvalues --    1.82534   1.93269   2.03227   2.09115   2.11203
  Beta virt. eigenvalues --    2.13429   2.20843   2.31651   2.37454   2.45327
  Beta virt. eigenvalues --    3.38191   3.43615   3.47329   3.48758   3.51379
  Beta virt. eigenvalues --    3.57045   3.58248   3.64410   3.71417   3.72443
  Beta virt. eigenvalues --    4.53798   4.57361   4.62448   4.71459   4.91468
  Beta virt. eigenvalues --    4.99172   5.04026   5.04826   5.04884   5.08154
  Beta virt. eigenvalues --    5.11738   5.12828   5.13354   5.17662   5.25088
  Beta virt. eigenvalues --    5.26070   5.42694   5.47401   5.54448   5.58405
  Beta virt. eigenvalues --    5.68162   5.72744   5.87035   6.00604   6.59073
  Beta virt. eigenvalues --    8.78073  14.33558  14.37907  14.40269  14.41099
  Beta virt. eigenvalues --   14.43618  14.47461  14.49138  14.50677  14.63133
  Beta virt. eigenvalues --   14.72920  17.37601  17.61907  17.90441  50.02845
  Beta virt. eigenvalues --   50.11888 189.82741
          Condensed to atoms (all electrons):
              1          2          3          4
     1  S   15.360465  -0.015812   0.139630   0.010027
     2  O   -0.015812   8.418798   0.005691   0.209540
     3  O    0.139630   0.005691   8.237485  -0.000820
     4  H    0.010027   0.209540  -0.000820   0.286740
 Mulliken atomic charges:
              1
     1  S    0.505690
     2  O   -0.618217
     3  O   -0.381986
     4  H    0.494513
 Sum of Mulliken atomic charges =   0.00000
 Mulliken charges with hydrogens summed into heavy atoms:
              1
     1  S    0.505690
     2  O   -0.123704
     3  O   -0.381986
 Sum of Mulliken charges with hydrogens summed into heavy atoms =   0.00000
          Atomic-Atomic Spin Densities.
              1          2          3          4
     1  S    0.943244  -0.103892  -0.197407  -0.000620
     2  O   -0.103892   0.148167   0.018983  -0.004198
     3  O   -0.197407   0.018983   0.477609  -0.000503
     4  H   -0.000620  -0.004198  -0.000503   0.006255
 Mulliken atomic spin densities:
              1
     1  S    0.641324
     2  O    0.059060
     3  O    0.298682
     4  H    0.000934
 Sum of Mulliken atomic spin densities =   1.00000
 Electronic spatial extent (au):  <R**2>=            177.0701
 Charge=              0.0000 electrons
 Dipole moment (field-independent basis, Debye):
    X=              1.2932    Y=              0.0847    Z=              0.5393  Tot=              1.4037
 Quadrupole moment (field-independent basis, Debye-Ang):
   XX=            -26.6011   YY=            -21.0856   ZZ=            -23.5851
   XY=              3.3938   XZ=              0.6976   YZ=              0.8479
 Traceless Quadrupole moment (field-independent basis, Debye-Ang):
   XX=             -2.8438   YY=              2.6717   ZZ=              0.1722
   XY=              3.3938   XZ=              0.6976   YZ=              0.8479
 Octapole moment (field-independent basis, Debye-Ang**2):
  XXX=              1.5604  YYY=              5.2049  ZZZ=             -0.0161  XYY=              4.5614
  XXY=              1.1071  XXZ=              0.8599  XZZ=              0.1563  YZZ=              1.2191
  YYZ=              0.9890  XYZ=              1.0216
 Hexadecapole moment (field-independent basis, Debye-Ang**3):
 XXXX=           -140.7524 YYYY=            -51.6266 ZZZZ=            -24.9266 XXXY=              6.1079
 XXXZ=              1.2102 YYYX=              6.2348 YYYZ=              1.4068 ZZZX=              0.3810
 ZZZY=              0.5945 XXYY=            -26.5709 XXZZ=            -26.7997 YYZZ=            -13.8207
 XXYZ=              1.4133 YYXZ=              1.2207 ZZXY=              0.4675
 N-N= 1.115457544596D+02 E-N=-2.282253225831D+03  KE= 8.210474377087D+02
                          Isotropic Fermi Contact Couplings
        Atom                 a.u.       MegaHertz       Gauss      10(-4) cm-1
     1  S(33)              0.10340      35.51537      12.67277      11.84665
     2  O(17)              0.02103     -12.74897      -4.54915      -4.25260
     3  O(17)              0.05210     -31.58242     -11.26939     -10.53476
     4  H(1)               0.00060       2.70240       0.96428       0.90142
 --------------------------------------------------------
       Center         ----  Spin Dipole Couplings  ----
                      3XX-RR        3YY-RR        3ZZ-RR
 --------------------------------------------------------
     1   Atom       -1.507196     -1.616140      3.123336
     2   Atom       -0.238541     -0.203238      0.441779
     3   Atom       -0.772136     -0.774616      1.546752
     4   Atom       -0.009174      0.020433     -0.011259
 --------------------------------------------------------
                        XY            XZ            YZ
 --------------------------------------------------------
     1   Atom       -0.003384     -0.055085      0.179822
     2   Atom        0.007892      0.012552     -0.111805
     3   Atom        0.005693      0.081295      0.041994
     4   Atom        0.005108      0.001278      0.004914
 --------------------------------------------------------


 ---------------------------------------------------------------------------------
              Anisotropic Spin Dipole Couplings in Principal Axis System
 ---------------------------------------------------------------------------------

       Atom             a.u.   MegaHertz   Gauss  10(-4) cm-1        Axes

              Baa    -1.6230   -66.540   -23.743   -22.195  0.0113  0.9992 -0.0377
     1 S(33)  Bbb    -1.5078   -61.820   -22.059   -20.621  0.9999 -0.0108  0.0123
              Bcc     3.1308   128.360    45.802    42.816 -0.0119  0.0379  0.9992
 
              Baa    -0.2433    17.605     6.282     5.872  0.9068 -0.4132 -0.0840
     2 O(17)  Bbb    -0.2175    15.737     5.615     5.249  0.4213  0.8954  0.1438
              Bcc     0.4608   -33.342   -11.897   -11.122  0.0158 -0.1658  0.9860
 
              Baa    -0.7794    56.397    20.124    18.812 -0.6903  0.7234  0.0111
     3 O(17)  Bbb    -0.7710    55.786    19.906    18.608  0.7227  0.6901 -0.0379
              Bcc     1.5504  -112.183   -40.030   -37.420  0.0350  0.0181  0.9992
 
              Baa    -0.0121    -6.467    -2.308    -2.157 -0.2284 -0.1102  0.9673
     4 H(1)   Bbb    -0.0099    -5.302    -1.892    -1.768  0.9594 -0.1944  0.2044
              Bcc     0.0221    11.769     4.199     3.926  0.1655  0.9747  0.1501
 

 ---------------------------------------------------------------------------------

 1\1\ CPUSERV-QCEXNOD15\SP\UwB97XD\6-311+G(3df)\H1O2S1(2)\VPEREZ\20-Aug
 -2025\0\\#sp wB97XD/6-311+G(3df)\\Optimizacion del hoso\\0,2\S,0,-0.13
 8843,-0.474008,0.016308\O,0,1.310132,0.256471,-0.04504\O,0,-1.185636,0
 .545438,-0.020037\H,0,1.225521,1.168845,0.259681\\Version=EM64L-G09Rev
 C.01\State=2-A\HF=-549.2212758\S2=0.755477\S2-1=0.\S2A=0.750021\RMSD=6
 .477e-09\Dipole=0.5087964,0.0333386,0.2121607\Quadrupole=-2.1143327,1.
 9863263,0.1280064,2.5232292,0.5186278,0.6303668\PG=C01 [X(H1O2S1)]\\@


 NEVER LOSE YOUR IGNORANCE, IT CAN'T BE REPLACED.
   -- ANDY CAPP
 Job cpu time:  0 days  0 hours  5 minutes 37.8 seconds.
 File lengths (MBytes):  RWF=     21 Int=      0 D2E=      0 Chk=      2 Scr=      1
 Normal termination of Gaussian 09 at Wed Aug 20 22:59:58 2025.
