 Entering Gaussian System, Link 0=g09
 Initial command:
 /soft/g09.c01/g09/l1.exe /scr/macias/389593.qcexmaster_vib3_0.20/Gau-25684.inp -scrdir=/scr/macias/389593.qcexmaster_vib3_0.20/
 Entering Link 1 = /soft/g09.c01/g09/l1.exe PID=     25699.
  
 Copyright (c) 1988,1990,1992,1993,1995,1998,2003,2009,2011,
            Gaussian, Inc.  All Rights Reserved.
  
 This is part of the Gaussian(R) 09 program.  It is based on
 the Gaussian(R) 03 system (copyright 2003, Gaussian, Inc.),
 the Gaussian(R) 98 system (copyright 1998, Gaussian, Inc.),
 the Gaussian(R) 94 system (copyright 1995, Gaussian, Inc.),
 the Gaussian 92(TM) system (copyright 1992, Gaussian, Inc.),
 the Gaussian 90(TM) system (copyright 1990, Gaussian, Inc.),
 the Gaussian 88(TM) system (copyright 1988, Gaussian, Inc.),
 the Gaussian 86(TM) system (copyright 1986, Carnegie Mellon
 University), and the Gaussian 82(TM) system (copyright 1983,
 Carnegie Mellon University). Gaussian is a federally registered
 trademark of Gaussian, Inc.
  
 This software contains proprietary and confidential information,
 including trade secrets, belonging to Gaussian, Inc.
  
 This software is provided under written license and may be
 used, copied, transmitted, or stored only in accord with that
 written license.
  
 The following legend is applicable only to US Government
 contracts under FAR:
  
                    RESTRICTED RIGHTS LEGEND
  
 Use, reproduction and disclosure by the US Government is
 subject to restrictions as set forth in subparagraphs (a)
 and (c) of the Commercial Computer Software - Restricted
 Rights clause in FAR 52.227-19.
  
 Gaussian, Inc.
 340 Quinnipiac St., Bldg. 40, Wallingford CT 06492
  
  
 ---------------------------------------------------------------
 Warning -- This program may not be used in any manner that
 competes with the business of Gaussian, Inc. or will provide
 assistance to any competitor of Gaussian, Inc.  The licensee
 of this program is prohibited from giving any competitor of
 Gaussian, Inc. access to this program.  By using this program,
 the user acknowledges that Gaussian, Inc. is engaged in the
 business of creating and licensing software in the field of
 computational chemistry and represents and warrants to the
 licensee that it is not a competitor of Gaussian, Inc. and that
 it will not use this program in any manner prohibited above.
 ---------------------------------------------------------------
  

 Cite this work as:
 Gaussian 09, Revision C.01,
 M. J. Frisch, G. W. Trucks, H. B. Schlegel, G. E. Scuseria, 
 M. A. Robb, J. R. Cheeseman, G. Scalmani, V. Barone, B. Mennucci, 
 G. A. Petersson, H. Nakatsuji, M. Caricato, X. Li, H. P. Hratchian, 
 A. F. Izmaylov, J. Bloino, G. Zheng, J. L. Sonnenberg, M. Hada, 
 M. Ehara, K. Toyota, R. Fukuda, J. Hasegawa, M. Ishida, T. Nakajima, 
 Y. Honda, O. Kitao, H. Nakai, T. Vreven, J. A. Montgomery, Jr., 
 J. E. Peralta, F. Ogliaro, M. Bearpark, J. J. Heyd, E. Brothers, 
 K. N. Kudin, V. N. Staroverov, T. Keith, R. Kobayashi, J. Normand, 
 K. Raghavachari, A. Rendell, J. C. Burant, S. S. Iyengar, J. Tomasi, 
 M. Cossi, N. Rega, J. M. Millam, M. Klene, J. E. Knox, J. B. Cross, 
 V. Bakken, C. Adamo, J. Jaramillo, R. Gomperts, R. E. Stratmann, 
 O. Yazyev, A. J. Austin, R. Cammi, C. Pomelli, J. W. Ochterski, 
 R. L. Martin, K. Morokuma, V. G. Zakrzewski, G. A. Voth, 
 P. Salvador, J. J. Dannenberg, S. Dapprich, A. D. Daniels, 
 O. Farkas, J. B. Foresman, J. V. Ortiz, J. Cioslowski, 
 and D. J. Fox, Gaussian, Inc., Wallingford CT, 2010.
 
  
 -----  Compilado por  -----------------------------------------
  
  Servicio de Calculo | Servicio de Informatica U. de Valencia
     calculo@uv.es    |  E-46100 Burjassot (Valencia) SPAIN
  
 ---------------------------------------------------------------
  
 ******************************************
 Gaussian 09:  EM64L-G09RevC.01 23-Sep-2011
                20-Aug-2025 
 ******************************************
 %chk=opt_freq.chk
 %nproc=6
 Will use up to    6 processors via shared memory.
 %mem=20GB
 Default route:  CacheSize=131072
 -----------------------
 #sp wB97XD/6-311+G(3df)
 -----------------------
 1/4=131072,38=1/1;
 2/4=131072,12=2,17=6,18=5,40=1/2;
 3/4=131072,5=4,6=6,7=16,11=2,16=1,25=1,30=1,74=-58/1,2,3;
 4/4=131072/1;
 5/4=131072,5=2,38=5/2;
 6/4=131072,7=2,8=2,9=2,10=2,28=1/1;
 99/4=131072,5=1,9=1/99;
 ---------------------
 Optimizacion del hoso
 ---------------------
 Charge =  0 Multiplicity = 2
 Symbolic Z-Matrix:
 S                    -0.07284  -0.42601   0.01231 
 O                     1.16813   0.18047  -0.03504 
 O                    -1.17964   0.52544  -0.01804 
 H                     1.27952   1.12885   0.21168 
 
                          Input orientation:                          
 ---------------------------------------------------------------------
 Center     Atomic      Atomic             Coordinates (Angstroms)
 Number     Number       Type             X           Y           Z
 ---------------------------------------------------------------------
      1         16           0       -0.072843   -0.426008    0.012308
      2          8           0        1.168132    0.180471   -0.035040
      3          8           0       -1.179636    0.525438   -0.018037
      4          1           0        1.279521    1.128845    0.211681
 ---------------------------------------------------------------------
                    Distance matrix (angstroms):
                    1          2          3          4
     1  S    0.000000
     2  O    1.382056   0.000000
     3  O    1.459850   2.373037   0.000000
     4  H    2.070315   0.986251   2.542503   0.000000
 Stoichiometry    HO2S(2)
 Framework group  C1[X(HO2S)]
 Deg. of freedom     6
 Full point group                 C1      NOp   1
 Largest Abelian subgroup         C1      NOp   1
 Largest concise Abelian subgroup C1      NOp   1
                         Standard orientation:                         
 ---------------------------------------------------------------------
 Center     Atomic      Atomic             Coordinates (Angstroms)
 Number     Number       Type             X           Y           Z
 ---------------------------------------------------------------------
      1         16           0       -0.040514   -0.429117    0.015353
      2          8           0        1.149849    0.270859   -0.040741
      3          8           0       -1.217428    0.434080   -0.015028
      4          1           0        1.188849    1.226357    0.200495
 ---------------------------------------------------------------------
 Rotational constants (GHZ):     43.6329531     10.8815738      8.7307852
 Standard basis: 6-311+G(3df) (5D, 7F)
 There are   128 symmetry adapted basis functions of A   symmetry.
 Integral buffers will be    131072 words long.
 Raffenetti 2 integral format.
 Two-electron integral symmetry is turned on.
   128 basis functions,   193 primitive gaussians,   146 cartesian basis functions
    17 alpha electrons       16 beta electrons
       nuclear repulsion energy       119.7273510018 Hartrees.
 NAtoms=    4 NActive=    4 NUniq=    4 SFac= 1.00D+00 NAtFMM=   60 NAOKFM=F Big=F
 Nuclear repulsion after empirical dispersion term =      119.7271249368 Hartrees.
 One-electron integrals computed using PRISM.
 NBasis=   128 RedAO= T  NBF=   128
 NBsUse=   128 1.00D-06 NBFU=   128
 Harris functional with IExCor= 4639 diagonalized for initial guess.
 ExpMin= 4.05D-02 ExpMax= 9.34D+04 ExpMxC= 3.17D+03 IAcc=2 IRadAn=         4 AccDes= 0.00D+00
 HarFok:  IExCor= 4639 AccDes= 0.00D+00 IRadAn=         4 IDoV= 1
 ScaDFX=  1.000000  1.000000  1.000000  1.000000
 FoFCou: FMM=F IPFlag=           0 FMFlag=      100000 FMFlg1=           0
         NFxFlg=           0 DoJE=T BraDBF=F KetDBF=T FulRan=T
         Omega=  0.000000  0.000000  1.000000  0.000000  0.000000 ICntrl=     500 IOpCl=  0
         NMat0=    1 NMatS0=    1 NMatT0=    0 NMatD0=    1 NMtDS0=    0 NMtDT0=    0
         I1Cent=           4 NGrid=           0.
 Petite list used in FoFCou.
 Initial guess orbital symmetries:
 Alpha Orbitals:
       Occupied  (A) (A) (A) (A) (A) (A) (A) (A) (A) (A) (A) (A)
                 (A) (A) (A) (A) (A)
       Virtual   (A) (A) (A) (A) (A) (A) (A) (A) (A) (A) (A) (A)
                 (A) (A) (A) (A) (A) (A) (A) (A) (A) (A) (A) (A)
                 (A) (A) (A) (A) (A) (A) (A) (A) (A) (A) (A) (A)
                 (A) (A) (A) (A) (A) (A) (A) (A) (A) (A) (A) (A)
                 (A) (A) (A) (A) (A) (A) (A) (A) (A) (A) (A) (A)
                 (A) (A) (A) (A) (A) (A) (A) (A) (A) (A) (A) (A)
                 (A) (A) (A) (A) (A) (A) (A) (A) (A) (A) (A) (A)
                 (A) (A) (A) (A) (A) (A) (A) (A) (A) (A) (A) (A)
                 (A) (A) (A) (A) (A) (A) (A) (A) (A) (A) (A) (A)
                 (A) (A) (A)
 Beta  Orbitals:
       Occupied  (A) (A) (A) (A) (A) (A) (A) (A) (A) (A) (A) (A)
                 (A) (A) (A) (A)
       Virtual   (A) (A) (A) (A) (A) (A) (A) (A) (A) (A) (A) (A)
                 (A) (A) (A) (A) (A) (A) (A) (A) (A) (A) (A) (A)
                 (A) (A) (A) (A) (A) (A) (A) (A) (A) (A) (A) (A)
                 (A) (A) (A) (A) (A) (A) (A) (A) (A) (A) (A) (A)
                 (A) (A) (A) (A) (A) (A) (A) (A) (A) (A) (A) (A)
                 (A) (A) (A) (A) (A) (A) (A) (A) (A) (A) (A) (A)
                 (A) (A) (A) (A) (A) (A) (A) (A) (A) (A) (A) (A)
                 (A) (A) (A) (A) (A) (A) (A) (A) (A) (A) (A) (A)
                 (A) (A) (A) (A) (A) (A) (A) (A) (A) (A) (A) (A)
                 (A) (A) (A) (A)
 The electronic state of the initial guess is 2-A.
 Initial guess <Sx>= 0.0000 <Sy>= 0.0000 <Sz>= 0.5000 <S**2>= 0.7500 S= 0.5000
 Requested convergence on RMS density matrix=1.00D-08 within 128 cycles.
 Requested convergence on MAX density matrix=1.00D-06.
 Requested convergence on             energy=1.00D-06.
 No special actions if energy rises.
 FoFJK:  IHMeth= 1 ICntrl=     0 DoSepK=T KAlg= 1 I1Cent= 0 FoldK=F
 FoFJK:  IHMeth= 1 ICntrl=     0 DoSepK=T KAlg= 1 I1Cent= 0 FoldK=F
 FoFJK:  IHMeth= 1 ICntrl=     0 DoSepK=T KAlg= 1 I1Cent= 0 FoldK=F
 FoFJK:  IHMeth= 1 ICntrl=     0 DoSepK=T KAlg= 1 I1Cent= 0 FoldK=F
 FoFJK:  IHMeth= 1 ICntrl=     0 DoSepK=T KAlg= 1 I1Cent= 0 FoldK=F
 FoFJK:  IHMeth= 1 ICntrl=     0 DoSepK=T KAlg= 1 I1Cent= 0 FoldK=F
 FoFJK:  IHMeth= 1 ICntrl=     0 DoSepK=T KAlg= 1 I1Cent= 0 FoldK=F
 FoFJK:  IHMeth= 1 ICntrl=     0 DoSepK=T KAlg= 1 I1Cent= 0 FoldK=F
 FoFJK:  IHMeth= 1 ICntrl=     0 DoSepK=T KAlg= 1 I1Cent= 0 FoldK=F
 FoFJK:  IHMeth= 1 ICntrl=     0 DoSepK=T KAlg= 1 I1Cent= 0 FoldK=F
 FoFJK:  IHMeth= 1 ICntrl=     0 DoSepK=T KAlg= 1 I1Cent= 0 FoldK=F
 FoFJK:  IHMeth= 1 ICntrl=     0 DoSepK=T KAlg= 1 I1Cent= 0 FoldK=F
 FoFJK:  IHMeth= 1 ICntrl=     0 DoSepK=T KAlg= 1 I1Cent= 0 FoldK=F
 FoFJK:  IHMeth= 1 ICntrl=     0 DoSepK=T KAlg= 1 I1Cent= 0 FoldK=F
 FoFJK:  IHMeth= 1 ICntrl=     0 DoSepK=T KAlg= 1 I1Cent= 0 FoldK=F
 SCF Done:  E(UwB97XD) =  -549.173325379     A.U. after   15 cycles
             Convg  =    0.6039D-08             -V/T =  2.0004
 <Sx>= 0.0000 <Sy>= 0.0000 <Sz>= 0.5000 <S**2>= 0.7554 S= 0.5027
 <L.S>= 0.000000000000E+00
 Annihilation of the first spin contaminant:
 S**2 before annihilation     0.7554,   after     0.7500

 **********************************************************************

            Population analysis using the SCF density.

 **********************************************************************

 Orbital symmetries:
 Alpha Orbitals:
       Occupied  (A) (A) (A) (A) (A) (A) (A) (A) (A) (A) (A) (A)
                 (A) (A) (A) (A) (A)
       Virtual   (A) (A) (A) (A) (A) (A) (A) (A) (A) (A) (A) (A)
                 (A) (A) (A) (A) (A) (A) (A) (A) (A) (A) (A) (A)
                 (A) (A) (A) (A) (A) (A) (A) (A) (A) (A) (A) (A)
                 (A) (A) (A) (A) (A) (A) (A) (A) (A) (A) (A) (A)
                 (A) (A) (A) (A) (A) (A) (A) (A) (A) (A) (A) (A)
                 (A) (A) (A) (A) (A) (A) (A) (A) (A) (A) (A) (A)
                 (A) (A) (A) (A) (A) (A) (A) (A) (A) (A) (A) (A)
                 (A) (A) (A) (A) (A) (A) (A) (A) (A) (A) (A) (A)
                 (A) (A) (A) (A) (A) (A) (A) (A) (A) (A) (A) (A)
                 (A) (A) (A)
 Beta  Orbitals:
       Occupied  (A) (A) (A) (A) (A) (A) (A) (A) (A) (A) (A) (A)
                 (A) (A) (A) (A)
       Virtual   (A) (A) (A) (A) (A) (A) (A) (A) (A) (A) (A) (A)
                 (A) (A) (A) (A) (A) (A) (A) (A) (A) (A) (A) (A)
                 (A) (A) (A) (A) (A) (A) (A) (A) (A) (A) (A) (A)
                 (A) (A) (A) (A) (A) (A) (A) (A) (A) (A) (A) (A)
                 (A) (A) (A) (A) (A) (A) (A) (A) (A) (A) (A) (A)
                 (A) (A) (A) (A) (A) (A) (A) (A) (A) (A) (A) (A)
                 (A) (A) (A) (A) (A) (A) (A) (A) (A) (A) (A) (A)
                 (A) (A) (A) (A) (A) (A) (A) (A) (A) (A) (A) (A)
                 (A) (A) (A) (A) (A) (A) (A) (A) (A) (A) (A) (A)
                 (A) (A) (A) (A)
 The electronic state is 2-A.
 Alpha  occ. eigenvalues --  -89.12085 -19.34895 -19.25089  -8.15332  -6.10302
 Alpha  occ. eigenvalues --   -6.09986  -6.09560  -1.31957  -1.13908  -0.84718
 Alpha  occ. eigenvalues --   -0.64599  -0.61967  -0.60742  -0.48070  -0.46584
 Alpha  occ. eigenvalues --   -0.40962  -0.27122
 Alpha virt. eigenvalues --    0.04638   0.07825   0.08680   0.09326   0.12482
 Alpha virt. eigenvalues --    0.16885   0.19194   0.22100   0.23799   0.25680
 Alpha virt. eigenvalues --    0.27474   0.28631   0.30674   0.33148   0.33874
 Alpha virt. eigenvalues --    0.36016   0.38378   0.38718   0.41152   0.42163
 Alpha virt. eigenvalues --    0.42568   0.54212   0.58933   0.72254   0.77845
 Alpha virt. eigenvalues --    0.80631   0.86685   0.87739   0.93156   0.94089
 Alpha virt. eigenvalues --    0.96761   0.98121   1.02124   1.04484   1.06409
 Alpha virt. eigenvalues --    1.11185   1.12085   1.15404   1.18846   1.24512
 Alpha virt. eigenvalues --    1.30394   1.32213   1.36686   1.39913   1.42146
 Alpha virt. eigenvalues --    1.50682   1.67763   1.72268   1.79212   1.85453
 Alpha virt. eigenvalues --    1.93538   2.04304   2.12414   2.14486   2.18821
 Alpha virt. eigenvalues --    2.24957   2.31368   2.46257   2.50843   3.34692
 Alpha virt. eigenvalues --    3.42526   3.46811   3.50421   3.50909   3.58068
 Alpha virt. eigenvalues --    3.60932   3.66526   3.72970   3.81484   4.62223
 Alpha virt. eigenvalues --    4.65537   4.65794   4.85890   4.95243   5.00616
 Alpha virt. eigenvalues --    5.01966   5.04476   5.06298   5.07407   5.13018
 Alpha virt. eigenvalues --    5.13133   5.13885   5.22526   5.28047   5.31247
 Alpha virt. eigenvalues --    5.46665   5.59646   5.68213   5.72952   5.79175
 Alpha virt. eigenvalues --    5.87046   5.97718   6.12505   6.73507   9.15487
 Alpha virt. eigenvalues --   14.29328  14.35215  14.40180  14.40944  14.41824
 Alpha virt. eigenvalues --   14.47710  14.50765  14.54822  14.67504  14.78800
 Alpha virt. eigenvalues --   17.40669  17.77639  18.24135  50.08307  50.16272
 Alpha virt. eigenvalues --  190.28925
  Beta  occ. eigenvalues --  -89.11705 -19.34580 -19.24310  -8.14988  -6.10075
  Beta  occ. eigenvalues --   -6.09355  -6.08755  -1.31089  -1.12257  -0.83411
  Beta  occ. eigenvalues --   -0.63090  -0.59798  -0.58907  -0.45691  -0.42792
  Beta  occ. eigenvalues --   -0.39558
  Beta virt. eigenvalues --   -0.00382   0.04928   0.08190   0.09015   0.09986
  Beta virt. eigenvalues --    0.13215   0.17877   0.19852   0.22370   0.24135
  Beta virt. eigenvalues --    0.25961   0.28048   0.29068   0.30962   0.33303
  Beta virt. eigenvalues --    0.34898   0.36378   0.38928   0.39674   0.41764
  Beta virt. eigenvalues --    0.42885   0.43498   0.54608   0.59455   0.72726
  Beta virt. eigenvalues --    0.78227   0.81156   0.87252   0.88308   0.93768
  Beta virt. eigenvalues --    0.94715   0.98121   0.98667   1.02879   1.05287
  Beta virt. eigenvalues --    1.07080   1.12366   1.13874   1.15737   1.19389
  Beta virt. eigenvalues --    1.25603   1.31511   1.32777   1.37338   1.40959
  Beta virt. eigenvalues --    1.42759   1.51039   1.71021   1.74117   1.80828
  Beta virt. eigenvalues --    1.86970   1.94188   2.05552   2.14542   2.15102
  Beta virt. eigenvalues --    2.19258   2.25775   2.32110   2.47053   2.51401
  Beta virt. eigenvalues --    3.35622   3.43498   3.48396   3.52417   3.52685
  Beta virt. eigenvalues --    3.59499   3.62338   3.67078   3.74048   3.81914
  Beta virt. eigenvalues --    4.63022   4.65831   4.66412   4.86674   4.95865
  Beta virt. eigenvalues --    5.01064   5.02714   5.05759   5.07155   5.08371
  Beta virt. eigenvalues --    5.14771   5.15490   5.16533   5.23423   5.29001
  Beta virt. eigenvalues --    5.32264   5.47378   5.60368   5.68953   5.74247
  Beta virt. eigenvalues --    5.79744   5.87521   5.99004   6.12966   6.73977
  Beta virt. eigenvalues --    9.15781  14.30733  14.36571  14.42176  14.44067
  Beta virt. eigenvalues --   14.44934  14.48730  14.53750  14.55724  14.68314
  Beta virt. eigenvalues --   14.80351  17.42041  17.77909  18.24450  50.08643
  Beta virt. eigenvalues --   50.16904 190.29223
          Condensed to atoms (all electrons):
              1          2          3          4
     1  S   15.680161  -0.198147   0.127525   0.006471
     2  O   -0.198147   8.434805   0.007115   0.200079
     3  O    0.127525   0.007115   8.315564  -0.000516
     4  H    0.006471   0.200079  -0.000516   0.284416
 Mulliken atomic charges:
              1
     1  S    0.383990
     2  O   -0.443851
     3  O   -0.449688
     4  H    0.509549
 Sum of Mulliken atomic charges =   0.00000
 Mulliken charges with hydrogens summed into heavy atoms:
              1
     1  S    0.383990
     2  O    0.065698
     3  O   -0.449688
 Sum of Mulliken charges with hydrogens summed into heavy atoms =   0.00000
          Atomic-Atomic Spin Densities.
              1          2          3          4
     1  S    1.088496  -0.193618  -0.217351  -0.003717
     2  O   -0.193618   0.242937   0.030508  -0.011766
     3  O   -0.217351   0.030508   0.442274  -0.000700
     4  H   -0.003717  -0.011766  -0.000700   0.019579
 Mulliken atomic spin densities:
              1
     1  S    0.673811
     2  O    0.068061
     3  O    0.254732
     4  H    0.003396
 Sum of Mulliken atomic spin densities =   1.00000
 Electronic spatial extent (au):  <R**2>=            161.0067
 Charge=              0.0000 electrons
 Dipole moment (field-independent basis, Debye):
    X=              2.9737    Y=              1.0631    Z=              0.4040  Tot=              3.1837
 Quadrupole moment (field-independent basis, Debye-Ang):
   XX=            -25.5821   YY=            -21.0436   ZZ=            -23.5441
   XY=              3.8137   XZ=              0.5983   YZ=              0.7077
 Traceless Quadrupole moment (field-independent basis, Debye-Ang):
   XX=             -2.1922   YY=              2.3463   ZZ=             -0.1541
   XY=              3.8137   XZ=              0.5983   YZ=              0.7077
 Octapole moment (field-independent basis, Debye-Ang**2):
  XXX=              6.6097  YYY=              7.2268  ZZZ=             -0.2265  XYY=              5.4663
  XXY=              1.7830  XXZ=              0.7456  XZZ=              1.0416  YZZ=              1.6260
  YYZ=              0.8017  XYZ=              0.7576
 Hexadecapole moment (field-independent basis, Debye-Ang**3):
 XXXX=           -124.4787 YYYY=            -46.6874 ZZZZ=            -25.3945 XXXY=              6.8110
 XXXZ=              1.0396 YYYX=              8.2274 YYYZ=              1.2479 ZZZX=              0.2726
 ZZZY=              0.5349 XXYY=            -23.3048 XXZZ=            -24.3197 YYZZ=            -13.4357
 XXYZ=              1.0546 YYXZ=              1.0187 ZZXY=              0.8002
 N-N= 1.197271249368D+02 E-N=-2.307301492309D+03  KE= 8.219846978859D+02
                          Isotropic Fermi Contact Couplings
        Atom                 a.u.       MegaHertz       Gauss      10(-4) cm-1
     1  S(33)              0.11324      38.89363      13.87822      12.97352
     2  O(17)              0.02823     -17.11001      -6.10528      -5.70728
     3  O(17)              0.04874     -29.54803     -10.54347      -9.85616
     4  H(1)               0.00180       8.02508       2.86355       2.67688
 --------------------------------------------------------
       Center         ----  Spin Dipole Couplings  ----
                      3XX-RR        3YY-RR        3ZZ-RR
 --------------------------------------------------------
     1   Atom       -1.499018     -1.606267      3.105284
     2   Atom       -0.285804     -0.265966      0.551769
     3   Atom       -0.684005     -0.679000      1.363005
     4   Atom       -0.015144      0.026464     -0.011321
 --------------------------------------------------------
                        XY            XZ            YZ
 --------------------------------------------------------
     1   Atom       -0.006254     -0.102211      0.177812
     2   Atom        0.025499     -0.019796     -0.132038
     3   Atom       -0.002989      0.098039      0.021359
     4   Atom        0.009233      0.001284      0.004006
 --------------------------------------------------------


 ---------------------------------------------------------------------------------
              Anisotropic Spin Dipole Couplings in Principal Axis System
 ---------------------------------------------------------------------------------

       Atom             a.u.   MegaHertz   Gauss  10(-4) cm-1        Axes

              Baa    -1.6130   -66.132   -23.598   -22.059  0.0215  0.9991 -0.0372
     1 S(33)  Bbb    -1.5012   -61.549   -21.962   -20.531  0.9995 -0.0206  0.0230
              Bcc     3.1143   127.682    45.560    42.590 -0.0222  0.0377  0.9990
 
              Baa    -0.3087    22.338     7.971     7.451  0.7044 -0.7039 -0.0918
     2 O(17)  Bbb    -0.2645    19.139     6.829     6.384  0.7093  0.6930  0.1293
              Bcc     0.5732   -41.477   -14.800   -13.835 -0.0274 -0.1562  0.9873
 
              Baa    -0.6902    49.939    17.820    16.658  0.9378  0.3438 -0.0484
     3 O(17)  Bbb    -0.6778    49.042    17.499    16.359 -0.3439  0.9390  0.0067
              Bcc     1.3679   -98.981   -35.319   -33.016  0.0477  0.0104  0.9988
 
              Baa    -0.0171    -9.142    -3.262    -3.049  0.9767 -0.1997 -0.0782
     4 H(1)   Bbb    -0.0117    -6.255    -2.232    -2.086  0.0553 -0.1174  0.9915
              Bcc     0.0289    15.397     5.494     5.136  0.2072  0.9728  0.1036
 

 ---------------------------------------------------------------------------------

 1\1\ CPUSERV-QCEXNOD15\SP\UwB97XD\6-311+G(3df)\H1O2S1(2)\VPEREZ\20-Aug
 -2025\0\\#sp wB97XD/6-311+G(3df)\\Optimizacion del hoso\\0,2\S,0,-0.07
 2843,-0.426008,0.012308\O,0,1.168132,0.180471,-0.03504\O,0,-1.179636,0
 .525438,-0.018037\H,0,1.279521,1.128845,0.211681\\Version=EM64L-G09Rev
 C.01\State=2-A\HF=-549.1733254\S2=0.755399\S2-1=0.\S2A=0.75002\RMSD=6.
 039e-09\Dipole=1.1979364,0.3260362,0.1660186\Quadrupole=-1.1787126,1.2
 83659,-0.1049464,3.0560604,0.4952902,0.5113939\PG=C01 [X(H1O2S1)]\\@


 I WANT TO KNOW HOW GOD CREATED THE WORLD.  I AM NOT INTERESTED IN
 THIS OR THAT PHENOMENON, IN THE SPECTRUM OF THIS OR THAT ELEMENT.
 I WANT TO KNOW HIS THOUGHTS, THE REST ARE DETAILS.
     -- ALBERT EINSTEIN
 Job cpu time:  0 days  0 hours  5 minutes 33.0 seconds.
 File lengths (MBytes):  RWF=     21 Int=      0 D2E=      0 Chk=      2 Scr=      1
 Normal termination of Gaussian 09 at Wed Aug 20 23:00:05 2025.
