 Entering Gaussian System, Link 0=g09
 Initial command:
 /soft/g09.c01/g09/l1.exe /scr/macias/389582.qcexmaster_vib2_0.10/Gau-835.inp -scrdir=/scr/macias/389582.qcexmaster_vib2_0.10/
 Entering Link 1 = /soft/g09.c01/g09/l1.exe PID=       841.
  
 Copyright (c) 1988,1990,1992,1993,1995,1998,2003,2009,2011,
            Gaussian, Inc.  All Rights Reserved.
  
 This is part of the Gaussian(R) 09 program.  It is based on
 the Gaussian(R) 03 system (copyright 2003, Gaussian, Inc.),
 the Gaussian(R) 98 system (copyright 1998, Gaussian, Inc.),
 the Gaussian(R) 94 system (copyright 1995, Gaussian, Inc.),
 the Gaussian 92(TM) system (copyright 1992, Gaussian, Inc.),
 the Gaussian 90(TM) system (copyright 1990, Gaussian, Inc.),
 the Gaussian 88(TM) system (copyright 1988, Gaussian, Inc.),
 the Gaussian 86(TM) system (copyright 1986, Carnegie Mellon
 University), and the Gaussian 82(TM) system (copyright 1983,
 Carnegie Mellon University). Gaussian is a federally registered
 trademark of Gaussian, Inc.
  
 This software contains proprietary and confidential information,
 including trade secrets, belonging to Gaussian, Inc.
  
 This software is provided under written license and may be
 used, copied, transmitted, or stored only in accord with that
 written license.
  
 The following legend is applicable only to US Government
 contracts under FAR:
  
                    RESTRICTED RIGHTS LEGEND
  
 Use, reproduction and disclosure by the US Government is
 subject to restrictions as set forth in subparagraphs (a)
 and (c) of the Commercial Computer Software - Restricted
 Rights clause in FAR 52.227-19.
  
 Gaussian, Inc.
 340 Quinnipiac St., Bldg. 40, Wallingford CT 06492
  
  
 ---------------------------------------------------------------
 Warning -- This program may not be used in any manner that
 competes with the business of Gaussian, Inc. or will provide
 assistance to any competitor of Gaussian, Inc.  The licensee
 of this program is prohibited from giving any competitor of
 Gaussian, Inc. access to this program.  By using this program,
 the user acknowledges that Gaussian, Inc. is engaged in the
 business of creating and licensing software in the field of
 computational chemistry and represents and warrants to the
 licensee that it is not a competitor of Gaussian, Inc. and that
 it will not use this program in any manner prohibited above.
 ---------------------------------------------------------------
  

 Cite this work as:
 Gaussian 09, Revision C.01,
 M. J. Frisch, G. W. Trucks, H. B. Schlegel, G. E. Scuseria, 
 M. A. Robb, J. R. Cheeseman, G. Scalmani, V. Barone, B. Mennucci, 
 G. A. Petersson, H. Nakatsuji, M. Caricato, X. Li, H. P. Hratchian, 
 A. F. Izmaylov, J. Bloino, G. Zheng, J. L. Sonnenberg, M. Hada, 
 M. Ehara, K. Toyota, R. Fukuda, J. Hasegawa, M. Ishida, T. Nakajima, 
 Y. Honda, O. Kitao, H. Nakai, T. Vreven, J. A. Montgomery, Jr., 
 J. E. Peralta, F. Ogliaro, M. Bearpark, J. J. Heyd, E. Brothers, 
 K. N. Kudin, V. N. Staroverov, T. Keith, R. Kobayashi, J. Normand, 
 K. Raghavachari, A. Rendell, J. C. Burant, S. S. Iyengar, J. Tomasi, 
 M. Cossi, N. Rega, J. M. Millam, M. Klene, J. E. Knox, J. B. Cross, 
 V. Bakken, C. Adamo, J. Jaramillo, R. Gomperts, R. E. Stratmann, 
 O. Yazyev, A. J. Austin, R. Cammi, C. Pomelli, J. W. Ochterski, 
 R. L. Martin, K. Morokuma, V. G. Zakrzewski, G. A. Voth, 
 P. Salvador, J. J. Dannenberg, S. Dapprich, A. D. Daniels, 
 O. Farkas, J. B. Foresman, J. V. Ortiz, J. Cioslowski, 
 and D. J. Fox, Gaussian, Inc., Wallingford CT, 2010.
 
  
 -----  Compilado por  -----------------------------------------
  
  Servicio de Calculo | Servicio de Informatica U. de Valencia
     calculo@uv.es    |  E-46100 Burjassot (Valencia) SPAIN
  
 ---------------------------------------------------------------
  
 ******************************************
 Gaussian 09:  EM64L-G09RevC.01 23-Sep-2011
                21-Aug-2025 
 ******************************************
 %chk=opt_freq.chk
 %nproc=6
 Will use up to    6 processors via shared memory.
 %mem=20GB
 Default route:  CacheSize=131072
 -----------------------
 #sp wB97XD/6-311+G(3df)
 -----------------------
 1/4=131072,38=1/1;
 2/4=131072,12=2,17=6,18=5,40=1/2;
 3/4=131072,5=4,6=6,7=16,11=2,16=1,25=1,30=1,74=-58/1,2,3;
 4/4=131072/1;
 5/4=131072,5=2,38=5/2;
 6/4=131072,7=2,8=2,9=2,10=2,28=1/1;
 99/4=131072,5=1,9=1/99;
 ---------------------
 Optimizacion del hoso
 ---------------------
 Charge =  0 Multiplicity = 2
 Symbolic Z-Matrix:
 S                    -0.13784  -0.45601   0.01331 
 O                     1.33813   0.23747  -0.04004 
 O                    -1.21964   0.52744  -0.01704 
 H                     1.29552   1.17085   0.21368 
 
                          Input orientation:                          
 ---------------------------------------------------------------------
 Center     Atomic      Atomic             Coordinates (Angstroms)
 Number     Number       Type             X           Y           Z
 ---------------------------------------------------------------------
      1         16           0       -0.137843   -0.456008    0.013308
      2          8           0        1.338132    0.237471   -0.040040
      3          8           0       -1.219636    0.527438   -0.017037
      4          1           0        1.295521    1.170845    0.213681
 ---------------------------------------------------------------------
                    Distance matrix (angstroms):
                    1          2          3          4
     1  S    0.000000
     2  O    1.631644   0.000000
     3  O    1.462314   2.574255   0.000000
     4  H    2.177460   0.968182   2.606380   0.000000
 Stoichiometry    HO2S(2)
 Framework group  C1[X(HO2S)]
 Deg. of freedom     6
 Full point group                 C1      NOp   1
 Largest Abelian subgroup         C1      NOp   1
 Largest concise Abelian subgroup C1      NOp   1
                         Standard orientation:                         
 ---------------------------------------------------------------------
 Center     Atomic      Atomic             Coordinates (Angstroms)
 Number     Number       Type             X           Y           Z
 ---------------------------------------------------------------------
      1         16           0       -0.137217   -0.456356    0.014461
      2          8           0        1.336061    0.242858   -0.038592
      3          8           0       -1.222835    0.522826   -0.017138
      4          1           0        1.289662    1.176233    0.214457
 ---------------------------------------------------------------------
 Rotational constants (GHZ):     37.7967153      9.2130763      7.4236412
 Standard basis: 6-311+G(3df) (5D, 7F)
 There are   128 symmetry adapted basis functions of A   symmetry.
 Integral buffers will be    131072 words long.
 Raffenetti 2 integral format.
 Two-electron integral symmetry is turned on.
   128 basis functions,   193 primitive gaussians,   146 cartesian basis functions
    17 alpha electrons       16 beta electrons
       nuclear repulsion energy       110.8747196437 Hartrees.
 NAtoms=    4 NActive=    4 NUniq=    4 SFac= 1.00D+00 NAtFMM=   60 NAOKFM=F Big=F
 Nuclear repulsion after empirical dispersion term =      110.8744443147 Hartrees.
 One-electron integrals computed using PRISM.
 NBasis=   128 RedAO= T  NBF=   128
 NBsUse=   128 1.00D-06 NBFU=   128
 Harris functional with IExCor= 4639 diagonalized for initial guess.
 ExpMin= 4.05D-02 ExpMax= 9.34D+04 ExpMxC= 3.17D+03 IAcc=2 IRadAn=         4 AccDes= 0.00D+00
 HarFok:  IExCor= 4639 AccDes= 0.00D+00 IRadAn=         4 IDoV= 1
 ScaDFX=  1.000000  1.000000  1.000000  1.000000
 FoFCou: FMM=F IPFlag=           0 FMFlag=      100000 FMFlg1=           0
         NFxFlg=           0 DoJE=T BraDBF=F KetDBF=T FulRan=T
         Omega=  0.000000  0.000000  1.000000  0.000000  0.000000 ICntrl=     500 IOpCl=  0
         NMat0=    1 NMatS0=    1 NMatT0=    0 NMatD0=    1 NMtDS0=    0 NMtDT0=    0
         I1Cent=           4 NGrid=           0.
 Petite list used in FoFCou.
 Initial guess orbital symmetries:
 Alpha Orbitals:
       Occupied  (A) (A) (A) (A) (A) (A) (A) (A) (A) (A) (A) (A)
                 (A) (A) (A) (A) (A)
       Virtual   (A) (A) (A) (A) (A) (A) (A) (A) (A) (A) (A) (A)
                 (A) (A) (A) (A) (A) (A) (A) (A) (A) (A) (A) (A)
                 (A) (A) (A) (A) (A) (A) (A) (A) (A) (A) (A) (A)
                 (A) (A) (A) (A) (A) (A) (A) (A) (A) (A) (A) (A)
                 (A) (A) (A) (A) (A) (A) (A) (A) (A) (A) (A) (A)
                 (A) (A) (A) (A) (A) (A) (A) (A) (A) (A) (A) (A)
                 (A) (A) (A) (A) (A) (A) (A) (A) (A) (A) (A) (A)
                 (A) (A) (A) (A) (A) (A) (A) (A) (A) (A) (A) (A)
                 (A) (A) (A) (A) (A) (A) (A) (A) (A) (A) (A) (A)
                 (A) (A) (A)
 Beta  Orbitals:
       Occupied  (A) (A) (A) (A) (A) (A) (A) (A) (A) (A) (A) (A)
                 (A) (A) (A) (A)
       Virtual   (A) (A) (A) (A) (A) (A) (A) (A) (A) (A) (A) (A)
                 (A) (A) (A) (A) (A) (A) (A) (A) (A) (A) (A) (A)
                 (A) (A) (A) (A) (A) (A) (A) (A) (A) (A) (A) (A)
                 (A) (A) (A) (A) (A) (A) (A) (A) (A) (A) (A) (A)
                 (A) (A) (A) (A) (A) (A) (A) (A) (A) (A) (A) (A)
                 (A) (A) (A) (A) (A) (A) (A) (A) (A) (A) (A) (A)
                 (A) (A) (A) (A) (A) (A) (A) (A) (A) (A) (A) (A)
                 (A) (A) (A) (A) (A) (A) (A) (A) (A) (A) (A) (A)
                 (A) (A) (A) (A) (A) (A) (A) (A) (A) (A) (A) (A)
                 (A) (A) (A) (A)
 The electronic state of the initial guess is 2-A.
 Initial guess <Sx>= 0.0000 <Sy>= 0.0000 <Sz>= 0.5000 <S**2>= 0.7500 S= 0.5000
 Requested convergence on RMS density matrix=1.00D-08 within 128 cycles.
 Requested convergence on MAX density matrix=1.00D-06.
 Requested convergence on             energy=1.00D-06.
 No special actions if energy rises.
 FoFJK:  IHMeth= 1 ICntrl=     0 DoSepK=T KAlg= 1 I1Cent= 0 FoldK=F
 FoFJK:  IHMeth= 1 ICntrl=     0 DoSepK=T KAlg= 1 I1Cent= 0 FoldK=F
 FoFJK:  IHMeth= 1 ICntrl=     0 DoSepK=T KAlg= 1 I1Cent= 0 FoldK=F
 FoFJK:  IHMeth= 1 ICntrl=     0 DoSepK=T KAlg= 1 I1Cent= 0 FoldK=F
 FoFJK:  IHMeth= 1 ICntrl=     0 DoSepK=T KAlg= 1 I1Cent= 0 FoldK=F
 FoFJK:  IHMeth= 1 ICntrl=     0 DoSepK=T KAlg= 1 I1Cent= 0 FoldK=F
 FoFJK:  IHMeth= 1 ICntrl=     0 DoSepK=T KAlg= 1 I1Cent= 0 FoldK=F
 FoFJK:  IHMeth= 1 ICntrl=     0 DoSepK=T KAlg= 1 I1Cent= 0 FoldK=F
 FoFJK:  IHMeth= 1 ICntrl=     0 DoSepK=T KAlg= 1 I1Cent= 0 FoldK=F
 FoFJK:  IHMeth= 1 ICntrl=     0 DoSepK=T KAlg= 1 I1Cent= 0 FoldK=F
 FoFJK:  IHMeth= 1 ICntrl=     0 DoSepK=T KAlg= 1 I1Cent= 0 FoldK=F
 FoFJK:  IHMeth= 1 ICntrl=     0 DoSepK=T KAlg= 1 I1Cent= 0 FoldK=F
 FoFJK:  IHMeth= 1 ICntrl=     0 DoSepK=T KAlg= 1 I1Cent= 0 FoldK=F
 FoFJK:  IHMeth= 1 ICntrl=     0 DoSepK=T KAlg= 1 I1Cent= 0 FoldK=F
 FoFJK:  IHMeth= 1 ICntrl=     0 DoSepK=T KAlg= 1 I1Cent= 0 FoldK=F
 SCF Done:  E(UwB97XD) =  -549.220617617     A.U. after   15 cycles
             Convg  =    0.6269D-08             -V/T =  2.0017
 <Sx>= 0.0000 <Sy>= 0.0000 <Sz>= 0.5000 <S**2>= 0.7555 S= 0.5028
 <L.S>= 0.000000000000E+00
 Annihilation of the first spin contaminant:
 S**2 before annihilation     0.7555,   after     0.7500

 **********************************************************************

            Population analysis using the SCF density.

 **********************************************************************

 Orbital symmetries:
 Alpha Orbitals:
       Occupied  (A) (A) (A) (A) (A) (A) (A) (A) (A) (A) (A) (A)
                 (A) (A) (A) (A) (A)
       Virtual   (A) (A) (A) (A) (A) (A) (A) (A) (A) (A) (A) (A)
                 (A) (A) (A) (A) (A) (A) (A) (A) (A) (A) (A) (A)
                 (A) (A) (A) (A) (A) (A) (A) (A) (A) (A) (A) (A)
                 (A) (A) (A) (A) (A) (A) (A) (A) (A) (A) (A) (A)
                 (A) (A) (A) (A) (A) (A) (A) (A) (A) (A) (A) (A)
                 (A) (A) (A) (A) (A) (A) (A) (A) (A) (A) (A) (A)
                 (A) (A) (A) (A) (A) (A) (A) (A) (A) (A) (A) (A)
                 (A) (A) (A) (A) (A) (A) (A) (A) (A) (A) (A) (A)
                 (A) (A) (A) (A) (A) (A) (A) (A) (A) (A) (A) (A)
                 (A) (A) (A)
 Beta  Orbitals:
       Occupied  (A) (A) (A) (A) (A) (A) (A) (A) (A) (A) (A) (A)
                 (A) (A) (A) (A)
       Virtual   (A) (A) (A) (A) (A) (A) (A) (A) (A) (A) (A) (A)
                 (A) (A) (A) (A) (A) (A) (A) (A) (A) (A) (A) (A)
                 (A) (A) (A) (A) (A) (A) (A) (A) (A) (A) (A) (A)
                 (A) (A) (A) (A) (A) (A) (A) (A) (A) (A) (A) (A)
                 (A) (A) (A) (A) (A) (A) (A) (A) (A) (A) (A) (A)
                 (A) (A) (A) (A) (A) (A) (A) (A) (A) (A) (A) (A)
                 (A) (A) (A) (A) (A) (A) (A) (A) (A) (A) (A) (A)
                 (A) (A) (A) (A) (A) (A) (A) (A) (A) (A) (A) (A)
                 (A) (A) (A) (A) (A) (A) (A) (A) (A) (A) (A) (A)
                 (A) (A) (A) (A)
 The electronic state is 2-A.
 Alpha  occ. eigenvalues --  -89.14830 -19.31947 -19.28523  -8.17564  -6.12494
 Alpha  occ. eigenvalues --   -6.12254  -6.11903  -1.22103  -1.15182  -0.80119
 Alpha  occ. eigenvalues --   -0.63296  -0.57157  -0.56453  -0.50459  -0.47429
 Alpha  occ. eigenvalues --   -0.42582  -0.30774
 Alpha virt. eigenvalues --    0.04958   0.06966   0.07724   0.09411   0.11274
 Alpha virt. eigenvalues --    0.13534   0.18867   0.22435   0.24428   0.25020
 Alpha virt. eigenvalues --    0.26540   0.28225   0.30341   0.32453   0.32801
 Alpha virt. eigenvalues --    0.35595   0.36483   0.37713   0.38925   0.39740
 Alpha virt. eigenvalues --    0.41153   0.52019   0.56328   0.68035   0.79107
 Alpha virt. eigenvalues --    0.81112   0.86683   0.88625   0.94127   0.96536
 Alpha virt. eigenvalues --    0.97566   0.98273   0.99960   1.02239   1.05044
 Alpha virt. eigenvalues --    1.09363   1.10171   1.11691   1.14520   1.17144
 Alpha virt. eigenvalues --    1.22101   1.26433   1.33782   1.38632   1.41559
 Alpha virt. eigenvalues --    1.43309   1.66938   1.68063   1.74722   1.79960
 Alpha virt. eigenvalues --    1.91625   2.01464   2.07963   2.09140   2.11942
 Alpha virt. eigenvalues --    2.20533   2.32343   2.36267   2.45312   3.37156
 Alpha virt. eigenvalues --    3.41312   3.45112   3.47658   3.49327   3.55389
 Alpha virt. eigenvalues --    3.57470   3.63816   3.70645   3.71616   4.53296
 Alpha virt. eigenvalues --    4.57638   4.61560   4.70500   4.90995   4.98499
 Alpha virt. eigenvalues --    5.03552   5.04289   5.04822   5.07134   5.09194
 Alpha virt. eigenvalues --    5.09710   5.11423   5.16501   5.22499   5.24635
 Alpha virt. eigenvalues --    5.41379   5.46568   5.52441   5.57735   5.66670
 Alpha virt. eigenvalues --    5.72873   5.85173   5.99861   6.53599   8.77344
 Alpha virt. eigenvalues --   14.32144  14.35203  14.36842  14.39232  14.40783
 Alpha virt. eigenvalues --   14.45369  14.47330  14.49155  14.61388  14.71024
 Alpha virt. eigenvalues --   17.36165  17.59338  17.90690  50.02093  50.11345
 Alpha virt. eigenvalues --  189.81251
  Beta  occ. eigenvalues --  -89.14443 -19.31689 -19.27639  -8.17218  -6.12265
  Beta  occ. eigenvalues --   -6.11695  -6.11008  -1.20937  -1.13712  -0.77864
  Beta  occ. eigenvalues --   -0.61984  -0.56362  -0.52873  -0.48629  -0.43594
  Beta  occ. eigenvalues --   -0.41318
  Beta virt. eigenvalues --   -0.03703   0.05417   0.07314   0.08188   0.09984
  Beta virt. eigenvalues --    0.12360   0.14072   0.19126   0.22659   0.24762
  Beta virt. eigenvalues --    0.25202   0.27102   0.28566   0.30646   0.32591
  Beta virt. eigenvalues --    0.33963   0.35898   0.36774   0.38579   0.39818
  Beta virt. eigenvalues --    0.40799   0.41794   0.52583   0.56526   0.68550
  Beta virt. eigenvalues --    0.79653   0.81474   0.87576   0.89024   0.94780
  Beta virt. eigenvalues --    0.96900   0.98223   0.99489   1.00787   1.03243
  Beta virt. eigenvalues --    1.05889   1.10177   1.11808   1.12275   1.14958
  Beta virt. eigenvalues --    1.17972   1.23440   1.26900   1.35224   1.39432
  Beta virt. eigenvalues --    1.41890   1.43657   1.69921   1.70200   1.76296
  Beta virt. eigenvalues --    1.81572   1.92407   2.02856   2.08873   2.11452
  Beta virt. eigenvalues --    2.12168   2.20987   2.32798   2.37106   2.45859
  Beta virt. eigenvalues --    3.38054   3.42758   3.47570   3.48564   3.50614
  Beta virt. eigenvalues --    3.57786   3.58430   3.64529   3.71682   3.72052
  Beta virt. eigenvalues --    4.53840   4.57834   4.62425   4.70938   4.91586
  Beta virt. eigenvalues --    4.99098   5.04494   5.04997   5.05484   5.08506
  Beta virt. eigenvalues --    5.11549   5.12782   5.13360   5.17433   5.23452
  Beta virt. eigenvalues --    5.25989   5.42000   5.47087   5.53248   5.58415
  Beta virt. eigenvalues --    5.67599   5.73382   5.86855   6.00421   6.54009
  Beta virt. eigenvalues --    8.77709  14.33450  14.37477  14.39979  14.41228
  Beta virt. eigenvalues --   14.43132  14.47786  14.49071  14.50531  14.62070
  Beta virt. eigenvalues --   14.72974  17.37565  17.59627  17.91016  50.02357
  Beta virt. eigenvalues --   50.12110 189.81557
          Condensed to atoms (all electrons):
              1          2          3          4
     1  S   15.398122  -0.037426   0.124364   0.013119
     2  O   -0.037426   8.435260   0.014769   0.207073
     3  O    0.124364   0.014769   8.238330  -0.002193
     4  H    0.013119   0.207073  -0.002193   0.288876
 Mulliken atomic charges:
              1
     1  S    0.501821
     2  O   -0.619676
     3  O   -0.375270
     4  H    0.493125
 Sum of Mulliken atomic charges =   0.00000
 Mulliken charges with hydrogens summed into heavy atoms:
              1
     1  S    0.501821
     2  O   -0.126551
     3  O   -0.375270
 Sum of Mulliken charges with hydrogens summed into heavy atoms =   0.00000
          Atomic-Atomic Spin Densities.
              1          2          3          4
     1  S    0.948234  -0.107396  -0.200069   0.000406
     2  O   -0.107396   0.155701   0.018156  -0.003689
     3  O   -0.200069   0.018156   0.478995  -0.000825
     4  H    0.000406  -0.003689  -0.000825   0.003905
 Mulliken atomic spin densities:
              1
     1  S    0.641175
     2  O    0.062772
     3  O    0.296257
     4  H   -0.000204
 Sum of Mulliken atomic spin densities =   1.00000
 Electronic spatial extent (au):  <R**2>=            180.2609
 Charge=              0.0000 electrons
 Dipole moment (field-independent basis, Debye):
    X=              1.3861    Y=              0.2498    Z=              0.4535  Tot=              1.4796
 Quadrupole moment (field-independent basis, Debye-Ang):
   XX=            -26.5325   YY=            -21.0360   ZZ=            -23.6761
   XY=              3.5664   XZ=              0.6131   YZ=              0.7086
 Traceless Quadrupole moment (field-independent basis, Debye-Ang):
   XX=             -2.7843   YY=              2.7122   ZZ=              0.0721
   XY=              3.5664   XZ=              0.6131   YZ=              0.7086
 Octapole moment (field-independent basis, Debye-Ang**2):
  XXX=              2.0337  YYY=              5.3233  ZZZ=             -0.0228  XYY=              4.8028
  XXY=              1.5593  XXZ=              0.8192  XZZ=              0.0532  YZZ=              1.1534
  YYZ=              0.8315  XYZ=              0.8936
 Hexadecapole moment (field-independent basis, Debye-Ang**3):
 XXXX=           -145.8217 YYYY=            -49.4099 ZZZZ=            -24.9496 XXXY=              6.9517
 XXXZ=              1.1868 YYYX=              6.6688 YYYZ=              1.1832 ZZZX=              0.3261
 ZZZY=              0.4867 XXYY=            -26.6600 XXZZ=            -27.8626 YYZZ=            -13.5050
 XXYZ=              1.2930 YYXZ=              1.0686 ZZXY=              0.4368
 N-N= 1.108744443147D+02 E-N=-2.280203744747D+03  KE= 8.209984264537D+02
                          Isotropic Fermi Contact Couplings
        Atom                 a.u.       MegaHertz       Gauss      10(-4) cm-1
     1  S(33)              0.10658      36.60645      13.06209      12.21060
     2  O(17)              0.02057     -12.47125      -4.45005      -4.15996
     3  O(17)              0.05209     -31.57895     -11.26816     -10.53361
     4  H(1)              -0.00015      -0.66781      -0.23829      -0.22276
 --------------------------------------------------------
       Center         ----  Spin Dipole Couplings  ----
                      3XX-RR        3YY-RR        3ZZ-RR
 --------------------------------------------------------
     1   Atom       -1.514942     -1.629237      3.144179
     2   Atom       -0.251936     -0.220856      0.472792
     3   Atom       -0.773386     -0.774636      1.548022
     4   Atom       -0.010388      0.021562     -0.011174
 --------------------------------------------------------
                        XY            XZ            YZ
 --------------------------------------------------------
     1   Atom       -0.000648     -0.044608      0.168283
     2   Atom        0.011996      0.003278     -0.097542
     3   Atom        0.003865      0.072809      0.043521
     4   Atom        0.006257      0.001136      0.003979
 --------------------------------------------------------


 ---------------------------------------------------------------------------------
              Anisotropic Spin Dipole Couplings in Principal Axis System
 ---------------------------------------------------------------------------------

       Atom             a.u.   MegaHertz   Gauss  10(-4) cm-1        Axes

              Baa    -1.6352   -67.040   -23.922   -22.362 -0.0077  0.9993 -0.0353
     1 S(33)  Bbb    -1.5154   -62.128   -22.169   -20.724  0.9999  0.0080  0.0093
              Bcc     3.1505   129.169    46.091    43.086 -0.0096  0.0352  0.9993
 
              Baa    -0.2583    18.689     6.669     6.234  0.8892 -0.4529 -0.0644
     2 O(17)  Bbb    -0.2280    16.496     5.886     5.502  0.4574  0.8810  0.1205
              Bcc     0.4863   -35.185   -12.555   -11.736  0.0022 -0.1366  0.9906
 
              Baa    -0.7781    56.300    20.089    18.780  0.7220 -0.6918 -0.0097
     3 O(17)  Bbb    -0.7731    55.938    19.960    18.659  0.6911  0.7219 -0.0352
              Bcc     1.5511  -112.238   -40.049   -37.439  0.0313  0.0188  0.9993
 
              Baa    -0.0120    -6.401    -2.284    -2.135 -0.6647  0.0354  0.7463
     4 H(1)   Bbb    -0.0112    -5.997    -2.140    -2.001  0.7237 -0.2175  0.6549
              Bcc     0.0232    12.398     4.424     4.136  0.1855  0.9754  0.1189
 

 ---------------------------------------------------------------------------------

 1\1\ CPUSERV-QCEXNOD10\SP\UwB97XD\6-311+G(3df)\H1O2S1(2)\ROOT\21-Aug-2
 025\0\\#sp wB97XD/6-311+G(3df)\\Optimizacion del hoso\\0,2\S,0,-0.1378
 43,-0.456008,0.013308\O,0,1.338132,0.237471,-0.04004\O,0,-1.219636,0.5
 27438,-0.017037\H,0,1.295521,1.170845,0.213681\\Version=EM64L-G09RevC.
 01\State=2-A\HF=-549.2206176\S2=0.755536\S2-1=0.\S2A=0.750021\RMSD=6.2
 69e-09\Dipole=0.5458075,0.0960057,0.1782167\Quadrupole=-2.0487742,1.99
 49103,0.053864,2.6674289,0.4608728,0.5249718\PG=C01 [X(H1O2S1)]\\@


 MAN IS THE MEASURE OF ALL THINGS.
  -- PROTAGORAS (5TH CENTURY B.C.)
 Job cpu time:  0 days  0 hours  3 minutes 27.0 seconds.
 File lengths (MBytes):  RWF=     21 Int=      0 D2E=      0 Chk=      2 Scr=      1
 Normal termination of Gaussian 09 at Thu Aug 21 01:11:04 2025.
