 Entering Gaussian System, Link 0=g09
 Initial command:
 /soft/g09.c01/g09/l1.exe /scr/macias/389572.qcexmaster_vib1_0.05/Gau-2954.inp -scrdir=/scr/macias/389572.qcexmaster_vib1_0.05/
 Entering Link 1 = /soft/g09.c01/g09/l1.exe PID=      2959.
  
 Copyright (c) 1988,1990,1992,1993,1995,1998,2003,2009,2011,
            Gaussian, Inc.  All Rights Reserved.
  
 This is part of the Gaussian(R) 09 program.  It is based on
 the Gaussian(R) 03 system (copyright 2003, Gaussian, Inc.),
 the Gaussian(R) 98 system (copyright 1998, Gaussian, Inc.),
 the Gaussian(R) 94 system (copyright 1995, Gaussian, Inc.),
 the Gaussian 92(TM) system (copyright 1992, Gaussian, Inc.),
 the Gaussian 90(TM) system (copyright 1990, Gaussian, Inc.),
 the Gaussian 88(TM) system (copyright 1988, Gaussian, Inc.),
 the Gaussian 86(TM) system (copyright 1986, Carnegie Mellon
 University), and the Gaussian 82(TM) system (copyright 1983,
 Carnegie Mellon University). Gaussian is a federally registered
 trademark of Gaussian, Inc.
  
 This software contains proprietary and confidential information,
 including trade secrets, belonging to Gaussian, Inc.
  
 This software is provided under written license and may be
 used, copied, transmitted, or stored only in accord with that
 written license.
  
 The following legend is applicable only to US Government
 contracts under FAR:
  
                    RESTRICTED RIGHTS LEGEND
  
 Use, reproduction and disclosure by the US Government is
 subject to restrictions as set forth in subparagraphs (a)
 and (c) of the Commercial Computer Software - Restricted
 Rights clause in FAR 52.227-19.
  
 Gaussian, Inc.
 340 Quinnipiac St., Bldg. 40, Wallingford CT 06492
  
  
 ---------------------------------------------------------------
 Warning -- This program may not be used in any manner that
 competes with the business of Gaussian, Inc. or will provide
 assistance to any competitor of Gaussian, Inc.  The licensee
 of this program is prohibited from giving any competitor of
 Gaussian, Inc. access to this program.  By using this program,
 the user acknowledges that Gaussian, Inc. is engaged in the
 business of creating and licensing software in the field of
 computational chemistry and represents and warrants to the
 licensee that it is not a competitor of Gaussian, Inc. and that
 it will not use this program in any manner prohibited above.
 ---------------------------------------------------------------
  

 Cite this work as:
 Gaussian 09, Revision C.01,
 M. J. Frisch, G. W. Trucks, H. B. Schlegel, G. E. Scuseria, 
 M. A. Robb, J. R. Cheeseman, G. Scalmani, V. Barone, B. Mennucci, 
 G. A. Petersson, H. Nakatsuji, M. Caricato, X. Li, H. P. Hratchian, 
 A. F. Izmaylov, J. Bloino, G. Zheng, J. L. Sonnenberg, M. Hada, 
 M. Ehara, K. Toyota, R. Fukuda, J. Hasegawa, M. Ishida, T. Nakajima, 
 Y. Honda, O. Kitao, H. Nakai, T. Vreven, J. A. Montgomery, Jr., 
 J. E. Peralta, F. Ogliaro, M. Bearpark, J. J. Heyd, E. Brothers, 
 K. N. Kudin, V. N. Staroverov, T. Keith, R. Kobayashi, J. Normand, 
 K. Raghavachari, A. Rendell, J. C. Burant, S. S. Iyengar, J. Tomasi, 
 M. Cossi, N. Rega, J. M. Millam, M. Klene, J. E. Knox, J. B. Cross, 
 V. Bakken, C. Adamo, J. Jaramillo, R. Gomperts, R. E. Stratmann, 
 O. Yazyev, A. J. Austin, R. Cammi, C. Pomelli, J. W. Ochterski, 
 R. L. Martin, K. Morokuma, V. G. Zakrzewski, G. A. Voth, 
 P. Salvador, J. J. Dannenberg, S. Dapprich, A. D. Daniels, 
 O. Farkas, J. B. Foresman, J. V. Ortiz, J. Cioslowski, 
 and D. J. Fox, Gaussian, Inc., Wallingford CT, 2010.
 
  
 -----  Compilado por  -----------------------------------------
  
  Servicio de Calculo | Servicio de Informatica U. de Valencia
     calculo@uv.es    |  E-46100 Burjassot (Valencia) SPAIN
  
 ---------------------------------------------------------------
  
 ******************************************
 Gaussian 09:  EM64L-G09RevC.01 23-Sep-2011
                21-Aug-2025 
 ******************************************
 %chk=opt_freq.chk
 %nproc=6
 Will use up to    6 processors via shared memory.
 %mem=20GB
 Default route:  CacheSize=131072
 -----------------------
 #sp wB97XD/6-311+G(3df)
 -----------------------
 1/4=131072,38=1/1;
 2/4=131072,12=2,17=6,18=5,40=1/2;
 3/4=131072,5=4,6=6,7=16,11=2,16=1,25=1,30=1,74=-58/1,2,3;
 4/4=131072/1;
 5/4=131072,5=2,38=5/2;
 6/4=131072,7=2,8=2,9=2,10=2,28=1/1;
 99/4=131072,5=1,9=1/99;
 ---------------------
 Optimizacion del hoso
 ---------------------
 Charge =  0 Multiplicity = 2
 Symbolic Z-Matrix:
 S                    -0.13884  -0.47301   0.01781 
 O                     1.31013   0.25647  -0.04904 
 O                    -1.18714   0.54444  -0.02204 
 H                     1.24002   1.15385   0.30468 
 
                          Input orientation:                          
 ---------------------------------------------------------------------
 Center     Atomic      Atomic             Coordinates (Angstroms)
 Number     Number       Type             X           Y           Z
 ---------------------------------------------------------------------
      1         16           0       -0.138843   -0.473008    0.017808
      2          8           0        1.310132    0.256471   -0.049040
      3          8           0       -1.187136    0.544438   -0.022037
      4          1           0        1.240021    1.153845    0.304681
 ---------------------------------------------------------------------
                    Distance matrix (angstroms):
                    1          2          3          4
     1  S    0.000000
     2  O    1.623618   0.000000
     3  O    1.461404   2.513961   0.000000
     4  H    2.151793   0.967116   2.523730   0.000000
 Stoichiometry    HO2S(2)
 Framework group  C1[X(HO2S)]
 Deg. of freedom     6
 Full point group                 C1      NOp   1
 Largest Abelian subgroup         C1      NOp   1
 Largest concise Abelian subgroup C1      NOp   1
                         Standard orientation:                         
 ---------------------------------------------------------------------
 Center     Atomic      Atomic             Coordinates (Angstroms)
 Number     Number       Type             X           Y           Z
 ---------------------------------------------------------------------
      1         16           0       -0.138875   -0.472755    0.018588
      2          8           0        1.309981    0.256609   -0.051994
      3          8           0       -1.187265    0.544538   -0.022613
      4          1           0        1.240272    1.154906    0.299457
 ---------------------------------------------------------------------
 Rotational constants (GHZ):     35.1930835      9.6565642      7.6092842
 Standard basis: 6-311+G(3df) (5D, 7F)
 There are   128 symmetry adapted basis functions of A   symmetry.
 Integral buffers will be    131072 words long.
 Raffenetti 2 integral format.
 Two-electron integral symmetry is turned on.
   128 basis functions,   193 primitive gaussians,   146 cartesian basis functions
    17 alpha electrons       16 beta electrons
       nuclear repulsion energy       111.5286821847 Hartrees.
 NAtoms=    4 NActive=    4 NUniq=    4 SFac= 1.00D+00 NAtFMM=   60 NAOKFM=F Big=F
 Nuclear repulsion after empirical dispersion term =      111.5284282770 Hartrees.
 One-electron integrals computed using PRISM.
 NBasis=   128 RedAO= T  NBF=   128
 NBsUse=   128 1.00D-06 NBFU=   128
 Harris functional with IExCor= 4639 diagonalized for initial guess.
 ExpMin= 4.05D-02 ExpMax= 9.34D+04 ExpMxC= 3.17D+03 IAcc=2 IRadAn=         4 AccDes= 0.00D+00
 HarFok:  IExCor= 4639 AccDes= 0.00D+00 IRadAn=         4 IDoV= 1
 ScaDFX=  1.000000  1.000000  1.000000  1.000000
 FoFCou: FMM=F IPFlag=           0 FMFlag=      100000 FMFlg1=           0
         NFxFlg=           0 DoJE=T BraDBF=F KetDBF=T FulRan=T
         Omega=  0.000000  0.000000  1.000000  0.000000  0.000000 ICntrl=     500 IOpCl=  0
         NMat0=    1 NMatS0=    1 NMatT0=    0 NMatD0=    1 NMtDS0=    0 NMtDT0=    0
         I1Cent=           4 NGrid=           0.
 Petite list used in FoFCou.
 Initial guess orbital symmetries:
 Alpha Orbitals:
       Occupied  (A) (A) (A) (A) (A) (A) (A) (A) (A) (A) (A) (A)
                 (A) (A) (A) (A) (A)
       Virtual   (A) (A) (A) (A) (A) (A) (A) (A) (A) (A) (A) (A)
                 (A) (A) (A) (A) (A) (A) (A) (A) (A) (A) (A) (A)
                 (A) (A) (A) (A) (A) (A) (A) (A) (A) (A) (A) (A)
                 (A) (A) (A) (A) (A) (A) (A) (A) (A) (A) (A) (A)
                 (A) (A) (A) (A) (A) (A) (A) (A) (A) (A) (A) (A)
                 (A) (A) (A) (A) (A) (A) (A) (A) (A) (A) (A) (A)
                 (A) (A) (A) (A) (A) (A) (A) (A) (A) (A) (A) (A)
                 (A) (A) (A) (A) (A) (A) (A) (A) (A) (A) (A) (A)
                 (A) (A) (A) (A) (A) (A) (A) (A) (A) (A) (A) (A)
                 (A) (A) (A)
 Beta  Orbitals:
       Occupied  (A) (A) (A) (A) (A) (A) (A) (A) (A) (A) (A) (A)
                 (A) (A) (A) (A)
       Virtual   (A) (A) (A) (A) (A) (A) (A) (A) (A) (A) (A) (A)
                 (A) (A) (A) (A) (A) (A) (A) (A) (A) (A) (A) (A)
                 (A) (A) (A) (A) (A) (A) (A) (A) (A) (A) (A) (A)
                 (A) (A) (A) (A) (A) (A) (A) (A) (A) (A) (A) (A)
                 (A) (A) (A) (A) (A) (A) (A) (A) (A) (A) (A) (A)
                 (A) (A) (A) (A) (A) (A) (A) (A) (A) (A) (A) (A)
                 (A) (A) (A) (A) (A) (A) (A) (A) (A) (A) (A) (A)
                 (A) (A) (A) (A) (A) (A) (A) (A) (A) (A) (A) (A)
                 (A) (A) (A) (A) (A) (A) (A) (A) (A) (A) (A) (A)
                 (A) (A) (A) (A)
 The electronic state of the initial guess is 2-A.
 Initial guess <Sx>= 0.0000 <Sy>= 0.0000 <Sz>= 0.5000 <S**2>= 0.7500 S= 0.5000
 Requested convergence on RMS density matrix=1.00D-08 within 128 cycles.
 Requested convergence on MAX density matrix=1.00D-06.
 Requested convergence on             energy=1.00D-06.
 No special actions if energy rises.
 FoFJK:  IHMeth= 1 ICntrl=     0 DoSepK=T KAlg= 1 I1Cent= 0 FoldK=F
 FoFJK:  IHMeth= 1 ICntrl=     0 DoSepK=T KAlg= 1 I1Cent= 0 FoldK=F
 FoFJK:  IHMeth= 1 ICntrl=     0 DoSepK=T KAlg= 1 I1Cent= 0 FoldK=F
 FoFJK:  IHMeth= 1 ICntrl=     0 DoSepK=T KAlg= 1 I1Cent= 0 FoldK=F
 FoFJK:  IHMeth= 1 ICntrl=     0 DoSepK=T KAlg= 1 I1Cent= 0 FoldK=F
 FoFJK:  IHMeth= 1 ICntrl=     0 DoSepK=T KAlg= 1 I1Cent= 0 FoldK=F
 FoFJK:  IHMeth= 1 ICntrl=     0 DoSepK=T KAlg= 1 I1Cent= 0 FoldK=F
 FoFJK:  IHMeth= 1 ICntrl=     0 DoSepK=T KAlg= 1 I1Cent= 0 FoldK=F
 FoFJK:  IHMeth= 1 ICntrl=     0 DoSepK=T KAlg= 1 I1Cent= 0 FoldK=F
 FoFJK:  IHMeth= 1 ICntrl=     0 DoSepK=T KAlg= 1 I1Cent= 0 FoldK=F
 FoFJK:  IHMeth= 1 ICntrl=     0 DoSepK=T KAlg= 1 I1Cent= 0 FoldK=F
 FoFJK:  IHMeth= 1 ICntrl=     0 DoSepK=T KAlg= 1 I1Cent= 0 FoldK=F
 FoFJK:  IHMeth= 1 ICntrl=     0 DoSepK=T KAlg= 1 I1Cent= 0 FoldK=F
 FoFJK:  IHMeth= 1 ICntrl=     0 DoSepK=T KAlg= 1 I1Cent= 0 FoldK=F
 FoFJK:  IHMeth= 1 ICntrl=     0 DoSepK=T KAlg= 1 I1Cent= 0 FoldK=F
 SCF Done:  E(UwB97XD) =  -549.221274587     A.U. after   15 cycles
             Convg  =    0.6962D-08             -V/T =  2.0016
 <Sx>= 0.0000 <Sy>= 0.0000 <Sz>= 0.5000 <S**2>= 0.7555 S= 0.5027
 <L.S>= 0.000000000000E+00
 Annihilation of the first spin contaminant:
 S**2 before annihilation     0.7555,   after     0.7500

 **********************************************************************

            Population analysis using the SCF density.

 **********************************************************************

 Orbital symmetries:
 Alpha Orbitals:
       Occupied  (A) (A) (A) (A) (A) (A) (A) (A) (A) (A) (A) (A)
                 (A) (A) (A) (A) (A)
       Virtual   (A) (A) (A) (A) (A) (A) (A) (A) (A) (A) (A) (A)
                 (A) (A) (A) (A) (A) (A) (A) (A) (A) (A) (A) (A)
                 (A) (A) (A) (A) (A) (A) (A) (A) (A) (A) (A) (A)
                 (A) (A) (A) (A) (A) (A) (A) (A) (A) (A) (A) (A)
                 (A) (A) (A) (A) (A) (A) (A) (A) (A) (A) (A) (A)
                 (A) (A) (A) (A) (A) (A) (A) (A) (A) (A) (A) (A)
                 (A) (A) (A) (A) (A) (A) (A) (A) (A) (A) (A) (A)
                 (A) (A) (A) (A) (A) (A) (A) (A) (A) (A) (A) (A)
                 (A) (A) (A) (A) (A) (A) (A) (A) (A) (A) (A) (A)
                 (A) (A) (A)
 Beta  Orbitals:
       Occupied  (A) (A) (A) (A) (A) (A) (A) (A) (A) (A) (A) (A)
                 (A) (A) (A) (A)
       Virtual   (A) (A) (A) (A) (A) (A) (A) (A) (A) (A) (A) (A)
                 (A) (A) (A) (A) (A) (A) (A) (A) (A) (A) (A) (A)
                 (A) (A) (A) (A) (A) (A) (A) (A) (A) (A) (A) (A)
                 (A) (A) (A) (A) (A) (A) (A) (A) (A) (A) (A) (A)
                 (A) (A) (A) (A) (A) (A) (A) (A) (A) (A) (A) (A)
                 (A) (A) (A) (A) (A) (A) (A) (A) (A) (A) (A) (A)
                 (A) (A) (A) (A) (A) (A) (A) (A) (A) (A) (A) (A)
                 (A) (A) (A) (A) (A) (A) (A) (A) (A) (A) (A) (A)
                 (A) (A) (A) (A) (A) (A) (A) (A) (A) (A) (A) (A)
                 (A) (A) (A) (A)
 The electronic state is 2-A.
 Alpha  occ. eigenvalues --  -89.14884 -19.31807 -19.28334  -8.17634  -6.12565
 Alpha  occ. eigenvalues --   -6.12327  -6.11970  -1.22462  -1.14978  -0.80043
 Alpha  occ. eigenvalues --   -0.63354  -0.57410  -0.56494  -0.50630  -0.47026
 Alpha  occ. eigenvalues --   -0.42498  -0.30974
 Alpha virt. eigenvalues --    0.04963   0.06796   0.07639   0.09360   0.11844
 Alpha virt. eigenvalues --    0.13473   0.18955   0.22393   0.24570   0.25068
 Alpha virt. eigenvalues --    0.26356   0.28214   0.30149   0.32516   0.32885
 Alpha virt. eigenvalues --    0.35547   0.36438   0.38050   0.39310   0.40496
 Alpha virt. eigenvalues --    0.41069   0.50671   0.56669   0.68114   0.78289
 Alpha virt. eigenvalues --    0.81621   0.87053   0.87917   0.93502   0.96143
 Alpha virt. eigenvalues --    0.96779   0.97750   1.00039   1.02051   1.05695
 Alpha virt. eigenvalues --    1.09111   1.10317   1.12792   1.14077   1.17542
 Alpha virt. eigenvalues --    1.22183   1.28575   1.33506   1.38109   1.40359
 Alpha virt. eigenvalues --    1.43320   1.66934   1.68243   1.74438   1.81272
 Alpha virt. eigenvalues --    1.92410   2.01708   2.08461   2.08938   2.13071
 Alpha virt. eigenvalues --    2.20528   2.31145   2.36596   2.44458   3.37604
 Alpha virt. eigenvalues --    3.42202   3.45085   3.47550   3.50091   3.55499
 Alpha virt. eigenvalues --    3.56739   3.63621   3.70412   3.71781   4.53258
 Alpha virt. eigenvalues --    4.57228   4.61640   4.70988   4.90778   4.98779
 Alpha virt. eigenvalues --    5.03409   5.04092   5.04154   5.06933   5.09114
 Alpha virt. eigenvalues --    5.09902   5.11346   5.16992   5.24044   5.24677
 Alpha virt. eigenvalues --    5.42138   5.46852   5.53548   5.57736   5.67363
 Alpha virt. eigenvalues --    5.72094   5.85450   5.99875   6.58555   8.77826
 Alpha virt. eigenvalues --   14.32445  14.35633  14.37113  14.39078  14.41396
 Alpha virt. eigenvalues --   14.45391  14.47126  14.49154  14.62550  14.70906
 Alpha virt. eigenvalues --   17.36260  17.61492  17.90188  50.02610  50.11111
 Alpha virt. eigenvalues --  189.82503
  Beta  occ. eigenvalues --  -89.14500 -19.31573 -19.27443  -8.17290  -6.12337
  Beta  occ. eigenvalues --   -6.11763  -6.11091  -1.21334  -1.13506  -0.77770
  Beta  occ. eigenvalues --   -0.61990  -0.56549  -0.53231  -0.48422  -0.43479
  Beta  occ. eigenvalues --   -0.41279
  Beta virt. eigenvalues --   -0.03891   0.05422   0.07148   0.08084   0.09958
  Beta virt. eigenvalues --    0.12777   0.14235   0.19262   0.22626   0.24882
  Beta virt. eigenvalues --    0.25282   0.26774   0.28605   0.30500   0.32683
  Beta virt. eigenvalues --    0.33998   0.35820   0.36902   0.38704   0.40523
  Beta virt. eigenvalues --    0.41082   0.41919   0.51252   0.56905   0.68628
  Beta virt. eigenvalues --    0.78822   0.81878   0.87621   0.88652   0.94121
  Beta virt. eigenvalues --    0.96540   0.97724   0.98763   1.00916   1.02858
  Beta virt. eigenvalues --    1.06424   1.09997   1.12239   1.13305   1.14465
  Beta virt. eigenvalues --    1.18396   1.23444   1.29050   1.34829   1.38918
  Beta virt. eigenvalues --    1.40724   1.43695   1.70068   1.70204   1.76059
  Beta virt. eigenvalues --    1.82804   1.93224   2.03107   2.09168   2.11273
  Beta virt. eigenvalues --    2.13471   2.21011   2.31624   2.37534   2.44931
  Beta virt. eigenvalues --    3.38445   3.43687   3.47278   3.48692   3.51477
  Beta virt. eigenvalues --    3.57093   3.58249   3.64345   3.71315   3.72405
  Beta virt. eigenvalues --    4.53795   4.57386   4.62514   4.71471   4.91364
  Beta virt. eigenvalues --    4.99309   5.04147   5.04689   5.04990   5.08245
  Beta virt. eigenvalues --    5.11748   5.12864   5.13410   5.17835   5.24994
  Beta virt. eigenvalues --    5.25990   5.42714   5.47364   5.54300   5.58476
  Beta virt. eigenvalues --    5.68287   5.72638   5.87128   6.00395   6.58961
  Beta virt. eigenvalues --    8.78187  14.33658  14.37928  14.40211  14.41075
  Beta virt. eigenvalues --   14.43683  14.47397  14.49073  14.50690  14.63130
  Beta virt. eigenvalues --   14.72940  17.37650  17.61781  17.90510  50.02834
  Beta virt. eigenvalues --   50.11899 189.82807
          Condensed to atoms (all electrons):
              1          2          3          4
     1  S   15.362849  -0.015573   0.140111   0.008702
     2  O   -0.015573   8.417443   0.005793   0.209783
     3  O    0.140111   0.005793   8.235795  -0.001173
     4  H    0.008702   0.209783  -0.001173   0.288627
 Mulliken atomic charges:
              1
     1  S    0.503911
     2  O   -0.617446
     3  O   -0.380526
     4  H    0.494061
 Sum of Mulliken atomic charges =   0.00000
 Mulliken charges with hydrogens summed into heavy atoms:
              1
     1  S    0.503911
     2  O   -0.123384
     3  O   -0.380526
 Sum of Mulliken charges with hydrogens summed into heavy atoms =   0.00000
          Atomic-Atomic Spin Densities.
              1          2          3          4
     1  S    0.939552  -0.100422  -0.196767  -0.002021
     2  O   -0.100422   0.142722   0.018265  -0.004376
     3  O   -0.196767   0.018265   0.480131  -0.000114
     4  H   -0.002021  -0.004376  -0.000114   0.008464
 Mulliken atomic spin densities:
              1
     1  S    0.640342
     2  O    0.056190
     3  O    0.301515
     4  H    0.001953
 Sum of Mulliken atomic spin densities =   1.00000
 Electronic spatial extent (au):  <R**2>=            177.1717
 Charge=              0.0000 electrons
 Dipole moment (field-independent basis, Debye):
    X=              1.3136    Y=              0.0707    Z=              0.6217  Tot=              1.4551
 Quadrupole moment (field-independent basis, Debye-Ang):
   XX=            -26.5435   YY=            -21.1752   ZZ=            -23.5197
   XY=              3.3966   XZ=              0.8153   YZ=              0.9647
 Traceless Quadrupole moment (field-independent basis, Debye-Ang):
   XX=             -2.7974   YY=              2.5709   ZZ=              0.2265
   XY=              3.3966   XZ=              0.8153   YZ=              0.9647
 Octapole moment (field-independent basis, Debye-Ang**2):
  XXX=              1.6834  YYY=              5.0582  ZZZ=             -0.0003  XYY=              4.4923
  XXY=              1.1783  XXZ=              1.0224  XZZ=              0.2387  YZZ=              1.2757
  YYZ=              1.1147  XYZ=              1.1757
 Hexadecapole moment (field-independent basis, Debye-Ang**3):
 XXXX=           -140.8130 YYYY=            -51.7089 ZZZZ=            -24.9798 XXXY=              6.2570
 XXXZ=              1.4583 YYYX=              6.1041 YYYZ=              1.5731 ZZZX=              0.4604
 ZZZY=              0.6948 XXYY=            -26.6133 XXZZ=            -26.7297 YYZZ=            -13.7288
 XXYZ=              1.6371 YYXZ=              1.3915 ZZXY=              0.5438
 N-N= 1.115284282770D+02 E-N=-2.282208976980D+03  KE= 8.210464071068D+02
                          Isotropic Fermi Contact Couplings
        Atom                 a.u.       MegaHertz       Gauss      10(-4) cm-1
     1  S(33)              0.10319      35.44363      12.64717      11.82272
     2  O(17)              0.02209     -13.39379      -4.77924      -4.46769
     3  O(17)              0.05234     -31.73100     -11.32241     -10.58432
     4  H(1)               0.00140       6.27135       2.23777       2.09190
 --------------------------------------------------------
       Center         ----  Spin Dipole Couplings  ----
                      3XX-RR        3YY-RR        3ZZ-RR
 --------------------------------------------------------
     1   Atom       -1.503766     -1.610981      3.114747
     2   Atom       -0.230449     -0.190748      0.421197
     3   Atom       -0.776441     -0.779892      1.556333
     4   Atom       -0.008564      0.019754     -0.011191
 --------------------------------------------------------
                        XY            XZ            YZ
 --------------------------------------------------------
     1   Atom       -0.004145     -0.060272      0.204779
     2   Atom        0.007757      0.011952     -0.122716
     3   Atom        0.006414      0.091834      0.050729
     4   Atom        0.005632      0.001477      0.005690
 --------------------------------------------------------


 ---------------------------------------------------------------------------------
              Anisotropic Spin Dipole Couplings in Principal Axis System
 ---------------------------------------------------------------------------------

       Atom             a.u.   MegaHertz   Gauss  10(-4) cm-1        Axes

              Baa    -1.6199   -66.413   -23.698   -22.153  0.0133  0.9990 -0.0430
     1 S(33)  Bbb    -1.5045   -61.685   -22.011   -20.576  0.9998 -0.0128  0.0136
              Bcc     3.1244   128.097    45.708    42.729 -0.0130  0.0432  0.9990
 
              Baa    -0.2353    17.025     6.075     5.679  0.9035 -0.4179 -0.0946
     2 O(17)  Bbb    -0.2098    15.178     5.416     5.063  0.4282  0.8885  0.1647
              Bcc     0.4450   -32.203   -11.491   -10.742  0.0152 -0.1893  0.9818
 
              Baa    -0.7850    56.800    20.268    18.946 -0.6683  0.7438  0.0101
     3 O(17)  Bbb    -0.7761    56.157    20.038    18.732  0.7428  0.6680 -0.0438
              Bcc     1.5611  -112.957   -40.306   -37.678  0.0393  0.0218  0.9990
 
              Baa    -0.0123    -6.554    -2.339    -2.186 -0.1702 -0.1432  0.9750
     4 H(1)   Bbb    -0.0096    -5.117    -1.826    -1.707  0.9674 -0.2124  0.1376
              Bcc     0.0219    11.671     4.165     3.893  0.1873  0.9666  0.1747
 

 ---------------------------------------------------------------------------------

 1\1\ CPUSERV-QCEXNOD09\SP\UwB97XD\6-311+G(3df)\H1O2S1(2)\ROOT\21-Aug-2
 025\0\\#sp wB97XD/6-311+G(3df)\\Optimizacion del hoso\\0,2\S,0,-0.1388
 43,-0.473008,0.017808\O,0,1.310132,0.256471,-0.04904\O,0,-1.187136,0.5
 44438,-0.022037\H,0,1.240021,1.153845,0.304681\\Version=EM64L-G09RevC.
 01\State=2-A\HF=-549.2212746\S2=0.755492\S2-1=0.\S2A=0.750021\RMSD=6.9
 62e-09\Dipole=0.5165224,0.0271665,0.2453239\Quadrupole=-2.0810863,1.90
 73979,0.1736884,2.5229381,0.6100219,0.7249013\PG=C01 [X(H1O2S1)]\\@


 THE WORLD IS NOT A HAMBURGER - YOU CAN'T HAVE IT YOUR WAY.
 Job cpu time:  0 days  0 hours  3 minutes 23.3 seconds.
 File lengths (MBytes):  RWF=     21 Int=      0 D2E=      0 Chk=      2 Scr=      1
 Normal termination of Gaussian 09 at Thu Aug 21 00:35:58 2025.
