 Entering Gaussian System, Link 0=g09
 Initial command:
 /soft/g09.c01/g09/l1.exe /scr/macias/389575.qcexmaster_vib1_0.20/Gau-2950.inp -scrdir=/scr/macias/389575.qcexmaster_vib1_0.20/
 Entering Link 1 = /soft/g09.c01/g09/l1.exe PID=      2960.
  
 Copyright (c) 1988,1990,1992,1993,1995,1998,2003,2009,2011,
            Gaussian, Inc.  All Rights Reserved.
  
 This is part of the Gaussian(R) 09 program.  It is based on
 the Gaussian(R) 03 system (copyright 2003, Gaussian, Inc.),
 the Gaussian(R) 98 system (copyright 1998, Gaussian, Inc.),
 the Gaussian(R) 94 system (copyright 1995, Gaussian, Inc.),
 the Gaussian 92(TM) system (copyright 1992, Gaussian, Inc.),
 the Gaussian 90(TM) system (copyright 1990, Gaussian, Inc.),
 the Gaussian 88(TM) system (copyright 1988, Gaussian, Inc.),
 the Gaussian 86(TM) system (copyright 1986, Carnegie Mellon
 University), and the Gaussian 82(TM) system (copyright 1983,
 Carnegie Mellon University). Gaussian is a federally registered
 trademark of Gaussian, Inc.
  
 This software contains proprietary and confidential information,
 including trade secrets, belonging to Gaussian, Inc.
  
 This software is provided under written license and may be
 used, copied, transmitted, or stored only in accord with that
 written license.
  
 The following legend is applicable only to US Government
 contracts under FAR:
  
                    RESTRICTED RIGHTS LEGEND
  
 Use, reproduction and disclosure by the US Government is
 subject to restrictions as set forth in subparagraphs (a)
 and (c) of the Commercial Computer Software - Restricted
 Rights clause in FAR 52.227-19.
  
 Gaussian, Inc.
 340 Quinnipiac St., Bldg. 40, Wallingford CT 06492
  
  
 ---------------------------------------------------------------
 Warning -- This program may not be used in any manner that
 competes with the business of Gaussian, Inc. or will provide
 assistance to any competitor of Gaussian, Inc.  The licensee
 of this program is prohibited from giving any competitor of
 Gaussian, Inc. access to this program.  By using this program,
 the user acknowledges that Gaussian, Inc. is engaged in the
 business of creating and licensing software in the field of
 computational chemistry and represents and warrants to the
 licensee that it is not a competitor of Gaussian, Inc. and that
 it will not use this program in any manner prohibited above.
 ---------------------------------------------------------------
  

 Cite this work as:
 Gaussian 09, Revision C.01,
 M. J. Frisch, G. W. Trucks, H. B. Schlegel, G. E. Scuseria, 
 M. A. Robb, J. R. Cheeseman, G. Scalmani, V. Barone, B. Mennucci, 
 G. A. Petersson, H. Nakatsuji, M. Caricato, X. Li, H. P. Hratchian, 
 A. F. Izmaylov, J. Bloino, G. Zheng, J. L. Sonnenberg, M. Hada, 
 M. Ehara, K. Toyota, R. Fukuda, J. Hasegawa, M. Ishida, T. Nakajima, 
 Y. Honda, O. Kitao, H. Nakai, T. Vreven, J. A. Montgomery, Jr., 
 J. E. Peralta, F. Ogliaro, M. Bearpark, J. J. Heyd, E. Brothers, 
 K. N. Kudin, V. N. Staroverov, T. Keith, R. Kobayashi, J. Normand, 
 K. Raghavachari, A. Rendell, J. C. Burant, S. S. Iyengar, J. Tomasi, 
 M. Cossi, N. Rega, J. M. Millam, M. Klene, J. E. Knox, J. B. Cross, 
 V. Bakken, C. Adamo, J. Jaramillo, R. Gomperts, R. E. Stratmann, 
 O. Yazyev, A. J. Austin, R. Cammi, C. Pomelli, J. W. Ochterski, 
 R. L. Martin, K. Morokuma, V. G. Zakrzewski, G. A. Voth, 
 P. Salvador, J. J. Dannenberg, S. Dapprich, A. D. Daniels, 
 O. Farkas, J. B. Foresman, J. V. Ortiz, J. Cioslowski, 
 and D. J. Fox, Gaussian, Inc., Wallingford CT, 2010.
 
  
 -----  Compilado por  -----------------------------------------
  
  Servicio de Calculo | Servicio de Informatica U. de Valencia
     calculo@uv.es    |  E-46100 Burjassot (Valencia) SPAIN
  
 ---------------------------------------------------------------
  
 ******************************************
 Gaussian 09:  EM64L-G09RevC.01 23-Sep-2011
                21-Aug-2025 
 ******************************************
 %chk=opt_freq.chk
 %nproc=6
 Will use up to    6 processors via shared memory.
 %mem=20GB
 Default route:  CacheSize=131072
 -----------------------
 #sp wB97XD/6-311+G(3df)
 -----------------------
 1/4=131072,38=1/1;
 2/4=131072,12=2,17=6,18=5,40=1/2;
 3/4=131072,5=4,6=6,7=16,11=2,16=1,25=1,30=1,74=-58/1,2,3;
 4/4=131072/1;
 5/4=131072,5=2,38=5/2;
 6/4=131072,7=2,8=2,9=2,10=2,28=1/1;
 99/4=131072,5=1,9=1/99;
 ---------------------
 Optimizacion del hoso
 ---------------------
 Charge =  0 Multiplicity = 2
 Symbolic Z-Matrix:
 S                    -0.13884  -0.47001   0.02231 
 O                     1.31013   0.25647  -0.06104 
 O                    -1.19164   0.54144  -0.02804 
 H                     1.28352   1.10885   0.43968 
 
                          Input orientation:                          
 ---------------------------------------------------------------------
 Center     Atomic      Atomic             Coordinates (Angstroms)
 Number     Number       Type             X           Y           Z
 ---------------------------------------------------------------------
      1         16           0       -0.138843   -0.470008    0.022308
      2          8           0        1.310132    0.256471   -0.061040
      3          8           0       -1.191636    0.541438   -0.028037
      4          1           0        1.283521    1.108845    0.439681
 ---------------------------------------------------------------------
                    Distance matrix (angstroms):
                    1          2          3          4
     1  S    0.000000
     2  O    1.623036   0.000000
     3  O    1.460798   2.518162   0.000000
     4  H    2.165663   0.988924   2.582075   0.000000
 Stoichiometry    HO2S(2)
 Framework group  C1[X(HO2S)]
 Deg. of freedom     6
 Full point group                 C1      NOp   1
 Largest Abelian subgroup         C1      NOp   1
 Largest concise Abelian subgroup C1      NOp   1
                         Standard orientation:                         
 ---------------------------------------------------------------------
 Center     Atomic      Atomic             Coordinates (Angstroms)
 Number     Number       Type             X           Y           Z
 ---------------------------------------------------------------------
      1         16           0       -0.138900   -0.468975    0.025141
      2          8           0        1.309397    0.256997   -0.073080
      3          8           0       -1.192245    0.541667   -0.029617
      4          1           0        1.285190    1.114277    0.419320
 ---------------------------------------------------------------------
 Rotational constants (GHZ):     35.4679966      9.5812067      7.6050579
 Standard basis: 6-311+G(3df) (5D, 7F)
 There are   128 symmetry adapted basis functions of A   symmetry.
 Integral buffers will be    131072 words long.
 Raffenetti 2 integral format.
 Two-electron integral symmetry is turned on.
   128 basis functions,   193 primitive gaussians,   146 cartesian basis functions
    17 alpha electrons       16 beta electrons
       nuclear repulsion energy       111.3807710898 Hartrees.
 NAtoms=    4 NActive=    4 NUniq=    4 SFac= 1.00D+00 NAtFMM=   60 NAOKFM=F Big=F
 Nuclear repulsion after empirical dispersion term =      111.3805081414 Hartrees.
 One-electron integrals computed using PRISM.
 NBasis=   128 RedAO= T  NBF=   128
 NBsUse=   128 1.00D-06 NBFU=   128
 Harris functional with IExCor= 4639 diagonalized for initial guess.
 ExpMin= 4.05D-02 ExpMax= 9.34D+04 ExpMxC= 3.17D+03 IAcc=2 IRadAn=         4 AccDes= 0.00D+00
 HarFok:  IExCor= 4639 AccDes= 0.00D+00 IRadAn=         4 IDoV= 1
 ScaDFX=  1.000000  1.000000  1.000000  1.000000
 FoFCou: FMM=F IPFlag=           0 FMFlag=      100000 FMFlg1=           0
         NFxFlg=           0 DoJE=T BraDBF=F KetDBF=T FulRan=T
         Omega=  0.000000  0.000000  1.000000  0.000000  0.000000 ICntrl=     500 IOpCl=  0
         NMat0=    1 NMatS0=    1 NMatT0=    0 NMatD0=    1 NMtDS0=    0 NMtDT0=    0
         I1Cent=           4 NGrid=           0.
 Petite list used in FoFCou.
 Initial guess orbital symmetries:
 Alpha Orbitals:
       Occupied  (A) (A) (A) (A) (A) (A) (A) (A) (A) (A) (A) (A)
                 (A) (A) (A) (A) (A)
       Virtual   (A) (A) (A) (A) (A) (A) (A) (A) (A) (A) (A) (A)
                 (A) (A) (A) (A) (A) (A) (A) (A) (A) (A) (A) (A)
                 (A) (A) (A) (A) (A) (A) (A) (A) (A) (A) (A) (A)
                 (A) (A) (A) (A) (A) (A) (A) (A) (A) (A) (A) (A)
                 (A) (A) (A) (A) (A) (A) (A) (A) (A) (A) (A) (A)
                 (A) (A) (A) (A) (A) (A) (A) (A) (A) (A) (A) (A)
                 (A) (A) (A) (A) (A) (A) (A) (A) (A) (A) (A) (A)
                 (A) (A) (A) (A) (A) (A) (A) (A) (A) (A) (A) (A)
                 (A) (A) (A) (A) (A) (A) (A) (A) (A) (A) (A) (A)
                 (A) (A) (A)
 Beta  Orbitals:
       Occupied  (A) (A) (A) (A) (A) (A) (A) (A) (A) (A) (A) (A)
                 (A) (A) (A) (A)
       Virtual   (A) (A) (A) (A) (A) (A) (A) (A) (A) (A) (A) (A)
                 (A) (A) (A) (A) (A) (A) (A) (A) (A) (A) (A) (A)
                 (A) (A) (A) (A) (A) (A) (A) (A) (A) (A) (A) (A)
                 (A) (A) (A) (A) (A) (A) (A) (A) (A) (A) (A) (A)
                 (A) (A) (A) (A) (A) (A) (A) (A) (A) (A) (A) (A)
                 (A) (A) (A) (A) (A) (A) (A) (A) (A) (A) (A) (A)
                 (A) (A) (A) (A) (A) (A) (A) (A) (A) (A) (A) (A)
                 (A) (A) (A) (A) (A) (A) (A) (A) (A) (A) (A) (A)
                 (A) (A) (A) (A) (A) (A) (A) (A) (A) (A) (A) (A)
                 (A) (A) (A) (A)
 The electronic state of the initial guess is 2-A.
 Initial guess <Sx>= 0.0000 <Sy>= 0.0000 <Sz>= 0.5000 <S**2>= 0.7500 S= 0.5000
 Requested convergence on RMS density matrix=1.00D-08 within 128 cycles.
 Requested convergence on MAX density matrix=1.00D-06.
 Requested convergence on             energy=1.00D-06.
 No special actions if energy rises.
 FoFJK:  IHMeth= 1 ICntrl=     0 DoSepK=T KAlg= 1 I1Cent= 0 FoldK=F
 FoFJK:  IHMeth= 1 ICntrl=     0 DoSepK=T KAlg= 1 I1Cent= 0 FoldK=F
 FoFJK:  IHMeth= 1 ICntrl=     0 DoSepK=T KAlg= 1 I1Cent= 0 FoldK=F
 FoFJK:  IHMeth= 1 ICntrl=     0 DoSepK=T KAlg= 1 I1Cent= 0 FoldK=F
 FoFJK:  IHMeth= 1 ICntrl=     0 DoSepK=T KAlg= 1 I1Cent= 0 FoldK=F
 FoFJK:  IHMeth= 1 ICntrl=     0 DoSepK=T KAlg= 1 I1Cent= 0 FoldK=F
 FoFJK:  IHMeth= 1 ICntrl=     0 DoSepK=T KAlg= 1 I1Cent= 0 FoldK=F
 FoFJK:  IHMeth= 1 ICntrl=     0 DoSepK=T KAlg= 1 I1Cent= 0 FoldK=F
 FoFJK:  IHMeth= 1 ICntrl=     0 DoSepK=T KAlg= 1 I1Cent= 0 FoldK=F
 FoFJK:  IHMeth= 1 ICntrl=     0 DoSepK=T KAlg= 1 I1Cent= 0 FoldK=F
 FoFJK:  IHMeth= 1 ICntrl=     0 DoSepK=T KAlg= 1 I1Cent= 0 FoldK=F
 FoFJK:  IHMeth= 1 ICntrl=     0 DoSepK=T KAlg= 1 I1Cent= 0 FoldK=F
 FoFJK:  IHMeth= 1 ICntrl=     0 DoSepK=T KAlg= 1 I1Cent= 0 FoldK=F
 FoFJK:  IHMeth= 1 ICntrl=     0 DoSepK=T KAlg= 1 I1Cent= 0 FoldK=F
 FoFJK:  IHMeth= 1 ICntrl=     0 DoSepK=T KAlg= 1 I1Cent= 0 FoldK=F
 SCF Done:  E(UwB97XD) =  -549.220741769     A.U. after   15 cycles
             Convg  =    0.8727D-08             -V/T =  2.0017
 <Sx>= 0.0000 <Sy>= 0.0000 <Sz>= 0.5000 <S**2>= 0.7555 S= 0.5028
 <L.S>= 0.000000000000E+00
 Annihilation of the first spin contaminant:
 S**2 before annihilation     0.7555,   after     0.7500

 **********************************************************************

            Population analysis using the SCF density.

 **********************************************************************

 Orbital symmetries:
 Alpha Orbitals:
       Occupied  (A) (A) (A) (A) (A) (A) (A) (A) (A) (A) (A) (A)
                 (A) (A) (A) (A) (A)
       Virtual   (A) (A) (A) (A) (A) (A) (A) (A) (A) (A) (A) (A)
                 (A) (A) (A) (A) (A) (A) (A) (A) (A) (A) (A) (A)
                 (A) (A) (A) (A) (A) (A) (A) (A) (A) (A) (A) (A)
                 (A) (A) (A) (A) (A) (A) (A) (A) (A) (A) (A) (A)
                 (A) (A) (A) (A) (A) (A) (A) (A) (A) (A) (A) (A)
                 (A) (A) (A) (A) (A) (A) (A) (A) (A) (A) (A) (A)
                 (A) (A) (A) (A) (A) (A) (A) (A) (A) (A) (A) (A)
                 (A) (A) (A) (A) (A) (A) (A) (A) (A) (A) (A) (A)
                 (A) (A) (A) (A) (A) (A) (A) (A) (A) (A) (A) (A)
                 (A) (A) (A)
 Beta  Orbitals:
       Occupied  (A) (A) (A) (A) (A) (A) (A) (A) (A) (A) (A) (A)
                 (A) (A) (A) (A)
       Virtual   (A) (A) (A) (A) (A) (A) (A) (A) (A) (A) (A) (A)
                 (A) (A) (A) (A) (A) (A) (A) (A) (A) (A) (A) (A)
                 (A) (A) (A) (A) (A) (A) (A) (A) (A) (A) (A) (A)
                 (A) (A) (A) (A) (A) (A) (A) (A) (A) (A) (A) (A)
                 (A) (A) (A) (A) (A) (A) (A) (A) (A) (A) (A) (A)
                 (A) (A) (A) (A) (A) (A) (A) (A) (A) (A) (A) (A)
                 (A) (A) (A) (A) (A) (A) (A) (A) (A) (A) (A) (A)
                 (A) (A) (A) (A) (A) (A) (A) (A) (A) (A) (A) (A)
                 (A) (A) (A) (A) (A) (A) (A) (A) (A) (A) (A) (A)
                 (A) (A) (A) (A)
 The electronic state is 2-A.
 Alpha  occ. eigenvalues --  -89.14797 -19.31948 -19.28353  -8.17544  -6.12471
 Alpha  occ. eigenvalues --   -6.12239  -6.11880  -1.22201  -1.14800  -0.79667
 Alpha  occ. eigenvalues --   -0.63316  -0.57396  -0.56233  -0.50824  -0.46516
 Alpha  occ. eigenvalues --   -0.42455  -0.31172
 Alpha virt. eigenvalues --    0.04709   0.06871   0.07723   0.09322   0.11955
 Alpha virt. eigenvalues --    0.13679   0.18390   0.22126   0.24663   0.25291
 Alpha virt. eigenvalues --    0.26246   0.28374   0.29787   0.32652   0.32843
 Alpha virt. eigenvalues --    0.35578   0.36265   0.38152   0.39727   0.40675
 Alpha virt. eigenvalues --    0.41012   0.50265   0.55519   0.67728   0.78513
 Alpha virt. eigenvalues --    0.82811   0.86915   0.88259   0.92742   0.96007
 Alpha virt. eigenvalues --    0.96577   0.98211   1.00016   1.01721   1.06222
 Alpha virt. eigenvalues --    1.09115   1.10532   1.12914   1.14227   1.17936
 Alpha virt. eigenvalues --    1.22291   1.28418   1.33715   1.37991   1.40176
 Alpha virt. eigenvalues --    1.42994   1.66995   1.68503   1.74346   1.81668
 Alpha virt. eigenvalues --    1.92395   2.01374   2.08593   2.09185   2.13271
 Alpha virt. eigenvalues --    2.21218   2.31136   2.36919   2.43752   3.38423
 Alpha virt. eigenvalues --    3.42603   3.44880   3.47375   3.50512   3.55396
 Alpha virt. eigenvalues --    3.56949   3.62353   3.69864   3.71016   4.53336
 Alpha virt. eigenvalues --    4.57394   4.61820   4.71152   4.90589   4.99446
 Alpha virt. eigenvalues --    5.03766   5.03829   5.04773   5.07163   5.09064
 Alpha virt. eigenvalues --    5.10007   5.11426   5.17528   5.23631   5.24430
 Alpha virt. eigenvalues --    5.41437   5.46415   5.53082   5.57408   5.67186
 Alpha virt. eigenvalues --    5.70011   5.85574   5.99114   6.58232   8.78115
 Alpha virt. eigenvalues --   14.32860  14.35741  14.36942  14.38876  14.41663
 Alpha virt. eigenvalues --   14.44856  14.46803  14.48562  14.62428  14.70939
 Alpha virt. eigenvalues --   17.36438  17.61198  17.90463  50.02502  50.11144
 Alpha virt. eigenvalues --  189.82620
  Beta  occ. eigenvalues --  -89.14415 -19.31746 -19.27440  -8.17202  -6.12243
  Beta  occ. eigenvalues --   -6.11675  -6.11011  -1.21051  -1.13357  -0.77343
  Beta  occ. eigenvalues --   -0.61888  -0.56392  -0.53460  -0.47971  -0.43527
  Beta  occ. eigenvalues --   -0.41205
  Beta virt. eigenvalues --   -0.04040   0.05143   0.07231   0.08147   0.09913
  Beta virt. eigenvalues --    0.12867   0.14487   0.18748   0.22324   0.24920
  Beta virt. eigenvalues --    0.25610   0.26550   0.28771   0.30269   0.32815
  Beta virt. eigenvalues --    0.33866   0.35874   0.36676   0.38763   0.40572
  Beta virt. eigenvalues --    0.41178   0.42397   0.50793   0.55829   0.68238
  Beta virt. eigenvalues --    0.79038   0.82947   0.87770   0.88755   0.93349
  Beta virt. eigenvalues --    0.96441   0.97604   0.99157   1.00904   1.02567
  Beta virt. eigenvalues --    1.06880   1.09988   1.12325   1.13617   1.14617
  Beta virt. eigenvalues --    1.18835   1.23471   1.28869   1.35018   1.38817
  Beta virt. eigenvalues --    1.40584   1.43346   1.70136   1.70434   1.75945
  Beta virt. eigenvalues --    1.83177   1.93263   2.02751   2.09311   2.11503
  Beta virt. eigenvalues --    2.13697   2.21744   2.31616   2.37896   2.44213
  Beta virt. eigenvalues --    3.39164   3.44143   3.47055   3.48517   3.51837
  Beta virt. eigenvalues --    3.57387   3.58044   3.63096   3.70316   3.72151
  Beta virt. eigenvalues --    4.53867   4.57557   4.62702   4.71629   4.91185
  Beta virt. eigenvalues --    4.99902   5.04385   5.04566   5.05406   5.08469
  Beta virt. eigenvalues --    5.11795   5.12942   5.13599   5.18364   5.24602
  Beta virt. eigenvalues --    5.25796   5.41958   5.46902   5.53767   5.58094
  Beta virt. eigenvalues --    5.67919   5.70832   5.87284   5.99654   6.58633
  Beta virt. eigenvalues --    8.78478  14.33898  14.38064  14.40002  14.40948
  Beta virt. eigenvalues --   14.43883  14.46340  14.48975  14.50416  14.63000
  Beta virt. eigenvalues --   14.73020  17.37816  17.61484  17.90785  50.02702
  Beta virt. eigenvalues --   50.11951 189.82921
          Condensed to atoms (all electrons):
              1          2          3          4
     1  S   15.371305  -0.012720   0.141127   0.003829
     2  O   -0.012720   8.407808   0.006629   0.209638
     3  O    0.141127   0.006629   8.229666  -0.002015
     4  H    0.003829   0.209638  -0.002015   0.298246
 Mulliken atomic charges:
              1
     1  S    0.496459
     2  O   -0.611355
     3  O   -0.375407
     4  H    0.490303
 Sum of Mulliken atomic charges =   0.00000
 Mulliken charges with hydrogens summed into heavy atoms:
              1
     1  S    0.496459
     2  O   -0.121052
     3  O   -0.375407
 Sum of Mulliken charges with hydrogens summed into heavy atoms =   0.00000
          Atomic-Atomic Spin Densities.
              1          2          3          4
     1  S    0.928308  -0.088868  -0.195292  -0.007001
     2  O   -0.088868   0.123874   0.015899  -0.004713
     3  O   -0.195292   0.015899   0.488933   0.001249
     4  H   -0.007001  -0.004713   0.001249   0.016337
 Mulliken atomic spin densities:
              1
     1  S    0.637147
     2  O    0.046192
     3  O    0.310789
     4  H    0.005872
 Sum of Mulliken atomic spin densities =   1.00000
 Electronic spatial extent (au):  <R**2>=            177.5901
 Charge=              0.0000 electrons
 Dipole moment (field-independent basis, Debye):
    X=              1.3832    Y=              0.0264    Z=              0.8655  Tot=              1.6319
 Quadrupole moment (field-independent basis, Debye-Ang):
   XX=            -26.3700   YY=            -21.4758   ZZ=            -23.2908
   XY=              3.3904   XZ=              1.1772   YZ=              1.2856
 Traceless Quadrupole moment (field-independent basis, Debye-Ang):
   XX=             -2.6578   YY=              2.2364   ZZ=              0.4214
   XY=              3.3904   XZ=              1.1772   YZ=              1.2856
 Octapole moment (field-independent basis, Debye-Ang**2):
  XXX=              2.0501  YYY=              4.5932  ZZZ=              0.0835  XYY=              4.2434
  XXY=              1.3724  XXZ=              1.5503  XZZ=              0.5424  YZZ=              1.4751
  YYZ=              1.4451  XYZ=              1.6210
 Hexadecapole moment (field-independent basis, Debye-Ang**3):
 XXXX=           -141.0861 YYYY=            -52.0601 ZZZZ=            -25.2006 XXXY=              6.6481
 XXXZ=              2.2782 YYYX=              5.6398 YYYZ=              1.9843 ZZZX=              0.7367
 ZZZY=              1.0069 XXYY=            -26.8407 XXZZ=            -26.4552 YYZZ=            -13.4542
 XXYZ=              2.2945 YYXZ=              1.8633 ZZXY=              0.8187
 N-N= 1.113805081414D+02 E-N=-2.281783999780D+03  KE= 8.210015129177D+02
                          Isotropic Fermi Contact Couplings
        Atom                 a.u.       MegaHertz       Gauss      10(-4) cm-1
     1  S(33)              0.10237      35.16301      12.54703      11.72912
     2  O(17)              0.02595     -15.73211      -5.61361      -5.24767
     3  O(17)              0.05311     -32.19428     -11.48772     -10.73886
     4  H(1)               0.00428      19.13907       6.82929       6.38411
 --------------------------------------------------------
       Center         ----  Spin Dipole Couplings  ----
                      3XX-RR        3YY-RR        3ZZ-RR
 --------------------------------------------------------
     1   Atom       -1.492373     -1.592772      3.085145
     2   Atom       -0.202677     -0.151049      0.353726
     3   Atom       -0.790882     -0.796452      1.587333
     4   Atom       -0.005956      0.016505     -0.010549
 --------------------------------------------------------
                        XY            XZ            YZ
 --------------------------------------------------------
     1   Atom       -0.005886     -0.064602      0.278309
     2   Atom        0.008351      0.006916     -0.142292
     3   Atom        0.009118      0.116844      0.082207
     4   Atom        0.007195      0.002059      0.007740
 --------------------------------------------------------


 ---------------------------------------------------------------------------------
              Anisotropic Spin Dipole Couplings in Principal Axis System
 ---------------------------------------------------------------------------------

       Atom             a.u.   MegaHertz   Gauss  10(-4) cm-1        Axes

              Baa    -1.6093   -65.980   -23.543   -22.009  0.0177  0.9981 -0.0589
     1 S(33)  Bbb    -1.4933   -61.222   -21.846   -20.421  0.9997 -0.0168  0.0151
              Bcc     3.1026   127.202    45.389    42.430 -0.0141  0.0592  0.9981
 
              Baa    -0.2077    15.030     5.363     5.014  0.8912 -0.4370 -0.1217
     2 O(17)  Bbb    -0.1834    13.270     4.735     4.426  0.4536  0.8629  0.2228
              Bcc     0.3911   -28.300   -10.098    -9.440  0.0077 -0.2537  0.9672
 
              Baa    -0.8032    58.120    20.739    19.387 -0.6105  0.7920  0.0026
     3 O(17)  Bbb    -0.7927    57.359    20.467    19.133  0.7905  0.6095 -0.0599
              Bcc     1.5959  -115.479   -41.206   -38.520  0.0490  0.0345  0.9982
 
              Baa    -0.0126    -6.729    -2.401    -2.244 -0.0290 -0.2501  0.9678
     4 H(1)   Bbb    -0.0081    -4.298    -1.534    -1.434  0.9623 -0.2691 -0.0407
              Bcc     0.0207    11.027     3.935     3.678  0.2706  0.9301  0.2485
 

 ---------------------------------------------------------------------------------

 1\1\ CPUSERV-QCEXNOD09\SP\UwB97XD\6-311+G(3df)\H1O2S1(2)\ROOT\21-Aug-2
 025\0\\#sp wB97XD/6-311+G(3df)\\Optimizacion del hoso\\0,2\S,0,-0.1388
 43,-0.470008,0.022308\O,0,1.310132,0.256471,-0.06104\O,0,-1.191636,0.5
 41438,-0.028037\H,0,1.283521,1.108845,0.439681\\Version=EM64L-G09RevC.
 01\State=2-A\HF=-549.2207418\S2=0.755548\S2-1=0.\S2A=0.750021\RMSD=8.7
 27e-09\Dipole=0.5423788,0.0068432,0.3434842\Quadrupole=-1.984005,1.642
 1583,0.3418467,2.5077878,0.8880936,0.9820614\PG=C01 [X(H1O2S1)]\\@


 WE THE UNWILLING
 LED BY THE UNQUALIFIED
 HAVE BEEN DOING THE UNBELIEVABLE SO LONG WITH SO LITTLE
 THAT WE NOW ATTEMPT THE IMPOSSIBLE WITH NOTHING.

                                    -- ANONYMOUS
 Job cpu time:  0 days  0 hours  3 minutes 29.9 seconds.
 File lengths (MBytes):  RWF=     21 Int=      0 D2E=      0 Chk=      2 Scr=      1
 Normal termination of Gaussian 09 at Thu Aug 21 00:36:00 2025.
