 Entering Gaussian System, Link 0=g09
 Initial command:
 /soft/g09.c01/g09/l1.exe /scr/macias/389592.qcexmaster_vib3_0.15/Gau-17163.inp -scrdir=/scr/macias/389592.qcexmaster_vib3_0.15/
 Entering Link 1 = /soft/g09.c01/g09/l1.exe PID=     17165.
  
 Copyright (c) 1988,1990,1992,1993,1995,1998,2003,2009,2011,
            Gaussian, Inc.  All Rights Reserved.
  
 This is part of the Gaussian(R) 09 program.  It is based on
 the Gaussian(R) 03 system (copyright 2003, Gaussian, Inc.),
 the Gaussian(R) 98 system (copyright 1998, Gaussian, Inc.),
 the Gaussian(R) 94 system (copyright 1995, Gaussian, Inc.),
 the Gaussian 92(TM) system (copyright 1992, Gaussian, Inc.),
 the Gaussian 90(TM) system (copyright 1990, Gaussian, Inc.),
 the Gaussian 88(TM) system (copyright 1988, Gaussian, Inc.),
 the Gaussian 86(TM) system (copyright 1986, Carnegie Mellon
 University), and the Gaussian 82(TM) system (copyright 1983,
 Carnegie Mellon University). Gaussian is a federally registered
 trademark of Gaussian, Inc.
  
 This software contains proprietary and confidential information,
 including trade secrets, belonging to Gaussian, Inc.
  
 This software is provided under written license and may be
 used, copied, transmitted, or stored only in accord with that
 written license.
  
 The following legend is applicable only to US Government
 contracts under FAR:
  
                    RESTRICTED RIGHTS LEGEND
  
 Use, reproduction and disclosure by the US Government is
 subject to restrictions as set forth in subparagraphs (a)
 and (c) of the Commercial Computer Software - Restricted
 Rights clause in FAR 52.227-19.
  
 Gaussian, Inc.
 340 Quinnipiac St., Bldg. 40, Wallingford CT 06492
  
  
 ---------------------------------------------------------------
 Warning -- This program may not be used in any manner that
 competes with the business of Gaussian, Inc. or will provide
 assistance to any competitor of Gaussian, Inc.  The licensee
 of this program is prohibited from giving any competitor of
 Gaussian, Inc. access to this program.  By using this program,
 the user acknowledges that Gaussian, Inc. is engaged in the
 business of creating and licensing software in the field of
 computational chemistry and represents and warrants to the
 licensee that it is not a competitor of Gaussian, Inc. and that
 it will not use this program in any manner prohibited above.
 ---------------------------------------------------------------
  

 Cite this work as:
 Gaussian 09, Revision C.01,
 M. J. Frisch, G. W. Trucks, H. B. Schlegel, G. E. Scuseria, 
 M. A. Robb, J. R. Cheeseman, G. Scalmani, V. Barone, B. Mennucci, 
 G. A. Petersson, H. Nakatsuji, M. Caricato, X. Li, H. P. Hratchian, 
 A. F. Izmaylov, J. Bloino, G. Zheng, J. L. Sonnenberg, M. Hada, 
 M. Ehara, K. Toyota, R. Fukuda, J. Hasegawa, M. Ishida, T. Nakajima, 
 Y. Honda, O. Kitao, H. Nakai, T. Vreven, J. A. Montgomery, Jr., 
 J. E. Peralta, F. Ogliaro, M. Bearpark, J. J. Heyd, E. Brothers, 
 K. N. Kudin, V. N. Staroverov, T. Keith, R. Kobayashi, J. Normand, 
 K. Raghavachari, A. Rendell, J. C. Burant, S. S. Iyengar, J. Tomasi, 
 M. Cossi, N. Rega, J. M. Millam, M. Klene, J. E. Knox, J. B. Cross, 
 V. Bakken, C. Adamo, J. Jaramillo, R. Gomperts, R. E. Stratmann, 
 O. Yazyev, A. J. Austin, R. Cammi, C. Pomelli, J. W. Ochterski, 
 R. L. Martin, K. Morokuma, V. G. Zakrzewski, G. A. Voth, 
 P. Salvador, J. J. Dannenberg, S. Dapprich, A. D. Daniels, 
 O. Farkas, J. B. Foresman, J. V. Ortiz, J. Cioslowski, 
 and D. J. Fox, Gaussian, Inc., Wallingford CT, 2010.
 
  
 -----  Compilado por  -----------------------------------------
  
  Servicio de Calculo | Servicio de Informatica U. de Valencia
     calculo@uv.es    |  E-46100 Burjassot (Valencia) SPAIN
  
 ---------------------------------------------------------------
  
 ******************************************
 Gaussian 09:  EM64L-G09RevC.01 23-Sep-2011
                21-Aug-2025 
 ******************************************
 %chk=opt_freq.chk
 %nproc=6
 Will use up to    6 processors via shared memory.
 %mem=20GB
 Default route:  CacheSize=131072
 -----------------------
 #sp wB97XD/6-311+G(3df)
 -----------------------
 1/4=131072,38=1/1;
 2/4=131072,12=2,17=6,18=5,40=1/2;
 3/4=131072,5=4,6=6,7=16,11=2,16=1,25=1,30=1,74=-58/1,2,3;
 4/4=131072/1;
 5/4=131072,5=2,38=5/2;
 6/4=131072,7=2,8=2,9=2,10=2,28=1/1;
 99/4=131072,5=1,9=1/99;
 ---------------------
 Optimizacion del hoso
 ---------------------
 Charge =  0 Multiplicity = 2
 Symbolic Z-Matrix:
 S                    -0.08934  -0.43801   0.01331 
 O                     1.20363   0.19947  -0.03754 
 O                    -1.18114   0.53044  -0.01854 
 H                     1.26602   1.13885   0.22368 
 
                          Input orientation:                          
 ---------------------------------------------------------------------
 Center     Atomic      Atomic             Coordinates (Angstroms)
 Number     Number       Type             X           Y           Z
 ---------------------------------------------------------------------
      1         16           0       -0.089343   -0.438008    0.013308
      2          8           0        1.203632    0.199471   -0.037540
      3          8           0       -1.181136    0.530438   -0.018537
      4          1           0        1.266021    1.138845    0.223681
 ---------------------------------------------------------------------
                    Distance matrix (angstroms):
                    1          2          3          4
     1  S    0.000000
     2  O    1.442480   0.000000
     3  O    1.459765   2.407700   0.000000
     4  H    2.089912   0.977012   2.533260   0.000000
 Stoichiometry    HO2S(2)
 Framework group  C1[X(HO2S)]
 Deg. of freedom     6
 Full point group                 C1      NOp   1
 Largest Abelian subgroup         C1      NOp   1
 Largest concise Abelian subgroup C1      NOp   1
                         Standard orientation:                         
 ---------------------------------------------------------------------
 Center     Atomic      Atomic             Coordinates (Angstroms)
 Number     Number       Type             X           Y           Z
 ---------------------------------------------------------------------
      1         16           0       -0.064282   -0.441517    0.015648
      2          8           0        1.189353    0.269699   -0.041973
      3          8           0       -1.210532    0.461815   -0.016251
      4          1           0        1.197936    1.212153    0.215436
 ---------------------------------------------------------------------
 Rotational constants (GHZ):     41.1186252     10.5812468      8.4377742
 Standard basis: 6-311+G(3df) (5D, 7F)
 There are   128 symmetry adapted basis functions of A   symmetry.
 Integral buffers will be    131072 words long.
 Raffenetti 2 integral format.
 Two-electron integral symmetry is turned on.
   128 basis functions,   193 primitive gaussians,   146 cartesian basis functions
    17 alpha electrons       16 beta electrons
       nuclear repulsion energy       117.4798938835 Hartrees.
 NAtoms=    4 NActive=    4 NUniq=    4 SFac= 1.00D+00 NAtFMM=   60 NAOKFM=F Big=F
 Nuclear repulsion after empirical dispersion term =      117.4796622308 Hartrees.
 One-electron integrals computed using PRISM.
 NBasis=   128 RedAO= T  NBF=   128
 NBsUse=   128 1.00D-06 NBFU=   128
 Harris functional with IExCor= 4639 diagonalized for initial guess.
 ExpMin= 4.05D-02 ExpMax= 9.34D+04 ExpMxC= 3.17D+03 IAcc=2 IRadAn=         4 AccDes= 0.00D+00
 HarFok:  IExCor= 4639 AccDes= 0.00D+00 IRadAn=         4 IDoV= 1
 ScaDFX=  1.000000  1.000000  1.000000  1.000000
 FoFCou: FMM=F IPFlag=           0 FMFlag=      100000 FMFlg1=           0
         NFxFlg=           0 DoJE=T BraDBF=F KetDBF=T FulRan=T
         Omega=  0.000000  0.000000  1.000000  0.000000  0.000000 ICntrl=     500 IOpCl=  0
         NMat0=    1 NMatS0=    1 NMatT0=    0 NMatD0=    1 NMtDS0=    0 NMtDT0=    0
         I1Cent=           4 NGrid=           0.
 Petite list used in FoFCou.
 Initial guess orbital symmetries:
 Alpha Orbitals:
       Occupied  (A) (A) (A) (A) (A) (A) (A) (A) (A) (A) (A) (A)
                 (A) (A) (A) (A) (A)
       Virtual   (A) (A) (A) (A) (A) (A) (A) (A) (A) (A) (A) (A)
                 (A) (A) (A) (A) (A) (A) (A) (A) (A) (A) (A) (A)
                 (A) (A) (A) (A) (A) (A) (A) (A) (A) (A) (A) (A)
                 (A) (A) (A) (A) (A) (A) (A) (A) (A) (A) (A) (A)
                 (A) (A) (A) (A) (A) (A) (A) (A) (A) (A) (A) (A)
                 (A) (A) (A) (A) (A) (A) (A) (A) (A) (A) (A) (A)
                 (A) (A) (A) (A) (A) (A) (A) (A) (A) (A) (A) (A)
                 (A) (A) (A) (A) (A) (A) (A) (A) (A) (A) (A) (A)
                 (A) (A) (A) (A) (A) (A) (A) (A) (A) (A) (A) (A)
                 (A) (A) (A)
 Beta  Orbitals:
       Occupied  (A) (A) (A) (A) (A) (A) (A) (A) (A) (A) (A) (A)
                 (A) (A) (A) (A)
       Virtual   (A) (A) (A) (A) (A) (A) (A) (A) (A) (A) (A) (A)
                 (A) (A) (A) (A) (A) (A) (A) (A) (A) (A) (A) (A)
                 (A) (A) (A) (A) (A) (A) (A) (A) (A) (A) (A) (A)
                 (A) (A) (A) (A) (A) (A) (A) (A) (A) (A) (A) (A)
                 (A) (A) (A) (A) (A) (A) (A) (A) (A) (A) (A) (A)
                 (A) (A) (A) (A) (A) (A) (A) (A) (A) (A) (A) (A)
                 (A) (A) (A) (A) (A) (A) (A) (A) (A) (A) (A) (A)
                 (A) (A) (A) (A) (A) (A) (A) (A) (A) (A) (A) (A)
                 (A) (A) (A) (A) (A) (A) (A) (A) (A) (A) (A) (A)
                 (A) (A) (A) (A)
 The electronic state of the initial guess is 2-A.
 Initial guess <Sx>= 0.0000 <Sy>= 0.0000 <Sz>= 0.5000 <S**2>= 0.7500 S= 0.5000
 Requested convergence on RMS density matrix=1.00D-08 within 128 cycles.
 Requested convergence on MAX density matrix=1.00D-06.
 Requested convergence on             energy=1.00D-06.
 No special actions if energy rises.
 FoFJK:  IHMeth= 1 ICntrl=     0 DoSepK=T KAlg= 1 I1Cent= 0 FoldK=F
 FoFJK:  IHMeth= 1 ICntrl=     0 DoSepK=T KAlg= 1 I1Cent= 0 FoldK=F
 FoFJK:  IHMeth= 1 ICntrl=     0 DoSepK=T KAlg= 1 I1Cent= 0 FoldK=F
 FoFJK:  IHMeth= 1 ICntrl=     0 DoSepK=T KAlg= 1 I1Cent= 0 FoldK=F
 FoFJK:  IHMeth= 1 ICntrl=     0 DoSepK=T KAlg= 1 I1Cent= 0 FoldK=F
 FoFJK:  IHMeth= 1 ICntrl=     0 DoSepK=T KAlg= 1 I1Cent= 0 FoldK=F
 FoFJK:  IHMeth= 1 ICntrl=     0 DoSepK=T KAlg= 1 I1Cent= 0 FoldK=F
 FoFJK:  IHMeth= 1 ICntrl=     0 DoSepK=T KAlg= 1 I1Cent= 0 FoldK=F
 FoFJK:  IHMeth= 1 ICntrl=     0 DoSepK=T KAlg= 1 I1Cent= 0 FoldK=F
 FoFJK:  IHMeth= 1 ICntrl=     0 DoSepK=T KAlg= 1 I1Cent= 0 FoldK=F
 FoFJK:  IHMeth= 1 ICntrl=     0 DoSepK=T KAlg= 1 I1Cent= 0 FoldK=F
 FoFJK:  IHMeth= 1 ICntrl=     0 DoSepK=T KAlg= 1 I1Cent= 0 FoldK=F
 FoFJK:  IHMeth= 1 ICntrl=     0 DoSepK=T KAlg= 1 I1Cent= 0 FoldK=F
 FoFJK:  IHMeth= 1 ICntrl=     0 DoSepK=T KAlg= 1 I1Cent= 0 FoldK=F
 FoFJK:  IHMeth= 1 ICntrl=     0 DoSepK=T KAlg= 1 I1Cent= 0 FoldK=F
 SCF Done:  E(UwB97XD) =  -549.197776891     A.U. after   15 cycles
             Convg  =    0.4969D-08             -V/T =  2.0009
 <Sx>= 0.0000 <Sy>= 0.0000 <Sz>= 0.5000 <S**2>= 0.7554 S= 0.5027
 <L.S>= 0.000000000000E+00
 Annihilation of the first spin contaminant:
 S**2 before annihilation     0.7554,   after     0.7500

 **********************************************************************

            Population analysis using the SCF density.

 **********************************************************************

 Orbital symmetries:
 Alpha Orbitals:
       Occupied  (A) (A) (A) (A) (A) (A) (A) (A) (A) (A) (A) (A)
                 (A) (A) (A) (A) (A)
       Virtual   (A) (A) (A) (A) (A) (A) (A) (A) (A) (A) (A) (A)
                 (A) (A) (A) (A) (A) (A) (A) (A) (A) (A) (A) (A)
                 (A) (A) (A) (A) (A) (A) (A) (A) (A) (A) (A) (A)
                 (A) (A) (A) (A) (A) (A) (A) (A) (A) (A) (A) (A)
                 (A) (A) (A) (A) (A) (A) (A) (A) (A) (A) (A) (A)
                 (A) (A) (A) (A) (A) (A) (A) (A) (A) (A) (A) (A)
                 (A) (A) (A) (A) (A) (A) (A) (A) (A) (A) (A) (A)
                 (A) (A) (A) (A) (A) (A) (A) (A) (A) (A) (A) (A)
                 (A) (A) (A) (A) (A) (A) (A) (A) (A) (A) (A) (A)
                 (A) (A) (A)
 Beta  Orbitals:
       Occupied  (A) (A) (A) (A) (A) (A) (A) (A) (A) (A) (A) (A)
                 (A) (A) (A) (A)
       Virtual   (A) (A) (A) (A) (A) (A) (A) (A) (A) (A) (A) (A)
                 (A) (A) (A) (A) (A) (A) (A) (A) (A) (A) (A) (A)
                 (A) (A) (A) (A) (A) (A) (A) (A) (A) (A) (A) (A)
                 (A) (A) (A) (A) (A) (A) (A) (A) (A) (A) (A) (A)
                 (A) (A) (A) (A) (A) (A) (A) (A) (A) (A) (A) (A)
                 (A) (A) (A) (A) (A) (A) (A) (A) (A) (A) (A) (A)
                 (A) (A) (A) (A) (A) (A) (A) (A) (A) (A) (A) (A)
                 (A) (A) (A) (A) (A) (A) (A) (A) (A) (A) (A) (A)
                 (A) (A) (A) (A) (A) (A) (A) (A) (A) (A) (A) (A)
                 (A) (A) (A) (A)
 The electronic state is 2-A.
 Alpha  occ. eigenvalues --  -89.12904 -19.34084 -19.25918  -8.15951  -6.10903
 Alpha  occ. eigenvalues --   -6.10630  -6.10218  -1.29003  -1.14457  -0.83333
 Alpha  occ. eigenvalues --   -0.64185  -0.60114  -0.59856  -0.48689  -0.47150
 Alpha  occ. eigenvalues --   -0.41503  -0.28173
 Alpha virt. eigenvalues --    0.05017   0.07763   0.08397   0.09370   0.12801
 Alpha virt. eigenvalues --    0.15756   0.19110   0.22095   0.24055   0.25503
 Alpha virt. eigenvalues --    0.27198   0.28525   0.30510   0.32980   0.33671
 Alpha virt. eigenvalues --    0.36029   0.38065   0.38712   0.40389   0.41578
 Alpha virt. eigenvalues --    0.41983   0.54853   0.56952   0.71031   0.78032
 Alpha virt. eigenvalues --    0.80536   0.86826   0.87872   0.93438   0.94905
 Alpha virt. eigenvalues --    0.96775   0.97705   1.01573   1.03863   1.06081
 Alpha virt. eigenvalues --    1.10617   1.11608   1.14994   1.18361   1.20904
 Alpha virt. eigenvalues --    1.28726   1.31046   1.36365   1.39072   1.41271
 Alpha virt. eigenvalues --    1.48040   1.67557   1.71164   1.77399   1.84363
 Alpha virt. eigenvalues --    1.93336   2.04076   2.11463   2.14057   2.18677
 Alpha virt. eigenvalues --    2.24008   2.30486   2.44337   2.46769   3.35366
 Alpha virt. eigenvalues --    3.42588   3.46126   3.49232   3.50081   3.57604
 Alpha virt. eigenvalues --    3.61368   3.62625   3.72151   3.78587   4.59810
 Alpha virt. eigenvalues --    4.61941   4.62428   4.83848   4.96127   4.99110
 Alpha virt. eigenvalues --    5.02614   5.03782   5.05256   5.07342   5.11982
 Alpha virt. eigenvalues --    5.12227   5.13196   5.21754   5.26788   5.29457
 Alpha virt. eigenvalues --    5.45983   5.58128   5.66611   5.70481   5.73442
 Alpha virt. eigenvalues --    5.77845   5.94234   6.10478   6.73423   9.06762
 Alpha virt. eigenvalues --   14.30126  14.35862  14.39383  14.39751  14.41353
 Alpha virt. eigenvalues --   14.47303  14.49812  14.52728  14.67686  14.76333
 Alpha virt. eigenvalues --   17.39075  17.74286  18.09572  50.05625  50.14604
 Alpha virt. eigenvalues --  190.15701
  Beta  occ. eigenvalues --  -89.12522 -19.33783 -19.25110  -8.15605  -6.10674
  Beta  occ. eigenvalues --   -6.10012  -6.09393  -1.28117  -1.12781  -0.81850
  Beta  occ. eigenvalues --   -0.62493  -0.58890  -0.57297  -0.46479  -0.43152
  Beta  occ. eigenvalues --   -0.40140
  Beta virt. eigenvalues --   -0.01333   0.05292   0.08125   0.08748   0.10009
  Beta virt. eigenvalues --    0.13558   0.16839   0.19639   0.22358   0.24376
  Beta virt. eigenvalues --    0.25756   0.27740   0.28939   0.30803   0.33128
  Beta virt. eigenvalues --    0.34737   0.36338   0.38566   0.39616   0.41288
  Beta virt. eigenvalues --    0.42187   0.42855   0.55235   0.57465   0.71498
  Beta virt. eigenvalues --    0.78466   0.80994   0.87328   0.88545   0.94038
  Beta virt. eigenvalues --    0.95494   0.97935   0.98415   1.02316   1.04704
  Beta virt. eigenvalues --    1.06770   1.11770   1.13467   1.15288   1.19042
  Beta virt. eigenvalues --    1.21785   1.29936   1.31579   1.37314   1.39877
  Beta virt. eigenvalues --    1.41862   1.48393   1.70792   1.73015   1.79080
  Beta virt. eigenvalues --    1.85875   1.93999   2.05306   2.13804   2.14411
  Beta virt. eigenvalues --    2.19208   2.24767   2.31215   2.45132   2.47293
  Beta virt. eigenvalues --    3.36275   3.43588   3.47646   3.51130   3.51987
  Beta virt. eigenvalues --    3.59523   3.62388   3.63219   3.73230   3.79022
  Beta virt. eigenvalues --    4.60438   4.62173   4.63197   4.84650   4.96704
  Beta virt. eigenvalues --    4.99566   5.03299   5.04972   5.06099   5.08368
  Beta virt. eigenvalues --    5.13983   5.14831   5.15630   5.22635   5.27787
  Beta virt. eigenvalues --    5.30567   5.46678   5.58873   5.67201   5.71694
  Beta virt. eigenvalues --    5.73959   5.78530   5.95572   6.10945   6.73861
  Beta virt. eigenvalues --    9.07060  14.31493  14.37273  14.41085  14.43221
  Beta virt. eigenvalues --   14.44441  14.48532  14.52774  14.53595  14.68505
  Beta virt. eigenvalues --   14.77983  17.40453  17.74554  18.09887  50.05920
  Beta virt. eigenvalues --   50.15295 190.16001
          Condensed to atoms (all electrons):
              1          2          3          4
     1  S   15.578694  -0.133685   0.127038   0.007456
     2  O   -0.133685   8.413550   0.008455   0.205582
     3  O    0.127038   0.008455   8.298155  -0.000833
     4  H    0.007456   0.205582  -0.000833   0.281576
 Mulliken atomic charges:
              1
     1  S    0.420497
     2  O   -0.493901
     3  O   -0.432815
     4  H    0.506219
 Sum of Mulliken atomic charges =   0.00000
 Mulliken charges with hydrogens summed into heavy atoms:
              1
     1  S    0.420497
     2  O    0.012318
     3  O   -0.432815
 Sum of Mulliken charges with hydrogens summed into heavy atoms =   0.00000
          Atomic-Atomic Spin Densities.
              1          2          3          4
     1  S    1.043472  -0.166601  -0.211646  -0.002462
     2  O   -0.166601   0.216484   0.027020  -0.008845
     3  O   -0.211646   0.027020   0.452147  -0.000608
     4  H   -0.002462  -0.008845  -0.000608   0.014179
 Mulliken atomic spin densities:
              1
     1  S    0.662764
     2  O    0.068059
     3  O    0.266913
     4  H    0.002264
 Sum of Mulliken atomic spin densities =   1.00000
 Electronic spatial extent (au):  <R**2>=            164.7928
 Charge=              0.0000 electrons
 Dipole moment (field-independent basis, Debye):
    X=              2.5416    Y=              0.7918    Z=              0.4467  Tot=              2.6993
 Quadrupole moment (field-independent basis, Debye-Ang):
   XX=            -25.8394   YY=            -21.0478   ZZ=            -23.5422
   XY=              3.7009   XZ=              0.6324   YZ=              0.7441
 Traceless Quadrupole moment (field-independent basis, Debye-Ang):
   XX=             -2.3630   YY=              2.4287   ZZ=             -0.0657
   XY=              3.7009   XZ=              0.6324   YZ=              0.7441
 Octapole moment (field-independent basis, Debye-Ang**2):
  XXX=              5.3486  YYY=              6.7059  ZZZ=             -0.1547  XYY=              5.2392
  XXY=              1.6094  XXZ=              0.7871  XZZ=              0.8080  YZZ=              1.5031
  YYZ=              0.8650  XYZ=              0.8258
 Hexadecapole moment (field-independent basis, Debye-Ang**3):
 XXXX=           -128.1624 YYYY=            -47.8597 ZZZZ=            -25.1782 XXXY=              6.6578
 XXXZ=              1.1164 YYYX=              7.7509 YYYZ=              1.3003 ZZZX=              0.3153
 ZZZY=              0.5460 XXYY=            -24.0192 XXZZ=            -24.8645 YYZZ=            -13.4927
 XXYZ=              1.1449 YYXZ=              1.0854 ZZXY=              0.7163
 N-N= 1.174796622308D+02 E-N=-2.300390252290D+03  KE= 8.216622256390D+02
                          Isotropic Fermi Contact Couplings
        Atom                 a.u.       MegaHertz       Gauss      10(-4) cm-1
     1  S(33)              0.11287      38.76906      13.83376      12.93197
     2  O(17)              0.02679     -16.23928      -5.79458      -5.41684
     3  O(17)              0.04974     -30.15009     -10.75830     -10.05699
     4  H(1)               0.00135       6.05454       2.16041       2.01958
 --------------------------------------------------------
       Center         ----  Spin Dipole Couplings  ----
                      3XX-RR        3YY-RR        3ZZ-RR
 --------------------------------------------------------
     1   Atom       -1.506051     -1.614022      3.120073
     2   Atom       -0.274811     -0.253825      0.528637
     3   Atom       -0.709701     -0.705571      1.415273
     4   Atom       -0.014108      0.025637     -0.011529
 --------------------------------------------------------
                        XY            XZ            YZ
 --------------------------------------------------------
     1   Atom       -0.007553     -0.087558      0.177732
     2   Atom        0.021420     -0.009350     -0.124867
     3   Atom       -0.001008      0.093808      0.026896
     4   Atom        0.008055      0.001340      0.004365
 --------------------------------------------------------


 ---------------------------------------------------------------------------------
              Anisotropic Spin Dipole Couplings in Principal Axis System
 ---------------------------------------------------------------------------------

       Atom             a.u.   MegaHertz   Gauss  10(-4) cm-1        Axes

              Baa    -1.6208   -66.453   -23.712   -22.166  0.0377  0.9986 -0.0367
     1 S(33)  Bbb    -1.5076   -61.808   -22.055   -20.617  0.9991 -0.0370  0.0203
              Bcc     3.1284   128.261    45.767    42.783 -0.0189  0.0375  0.9991
 
              Baa    -0.2939    21.265     7.588     7.093  0.7224 -0.6848 -0.0958
     2 O(17)  Bbb    -0.2544    18.408     6.568     6.140  0.6913  0.7122  0.1218
              Bcc     0.5483   -39.672   -14.156   -13.233 -0.0152 -0.1542  0.9879
 
              Baa    -0.7144    51.693    18.446    17.243  0.9672  0.2498 -0.0458
     3 O(17)  Bbb    -0.7053    51.038    18.212    17.025 -0.2501  0.9682 -0.0012
              Bcc     1.4197  -102.732   -36.657   -34.268  0.0440  0.0126  0.9990
 
              Baa    -0.0157    -8.398    -2.997    -2.801  0.9760 -0.1766 -0.1275
     4 H(1)   Bbb    -0.0120    -6.399    -2.283    -2.134  0.1040 -0.1365  0.9852
              Bcc     0.0277    14.797     5.280     4.936  0.1913  0.9748  0.1149
 

 ---------------------------------------------------------------------------------

 1\1\ CPUSERV-QCEXNOD13\SP\UwB97XD\6-311+G(3df)\H1O2S1(2)\ROOT\21-Aug-2
 025\0\\#sp wB97XD/6-311+G(3df)\\Optimizacion del hoso\\0,2\S,0,-0.0893
 43,-0.438008,0.013308\O,0,1.203632,0.199471,-0.03754\O,0,-1.181136,0.5
 30438,-0.018537\H,0,1.266021,1.138845,0.223681\\Version=EM64L-G09RevC.
 01\State=2-A\HF=-549.1977769\S2=0.755421\S2-1=0.\S2A=0.75002\RMSD=4.96
 9e-09\Dipole=1.015724,0.2522696,0.1801251\Quadrupole=-1.4294043,1.4708
 014,-0.0413971,2.9356543,0.5080819,0.5406833\PG=C01 [X(H1O2S1)]\\@


 CHARLIE BROWN -- WHICH DO YOU THINK LASTS LONGER IN LIFE, THE GOOD THINGS 
                  OR THE BAD THINGS?
 LINUS --         GOOD THINGS LAST EIGHT SECONDS ..
                  BAD THINGS LAST THREE WEEKS
 CHARLIE BROWN -- WHAT ABOUT IN BETWEEN?
 SNOOPY --        IN BETWEEN YOU SHOULD TAKE A NAP ...
 Job cpu time:  0 days  0 hours  6 minutes 12.8 seconds.
 File lengths (MBytes):  RWF=     21 Int=      0 D2E=      0 Chk=      2 Scr=      1
 Normal termination of Gaussian 09 at Thu Aug 21 00:39:59 2025.
