 Entering Gaussian System, Link 0=g09
 Initial command:
 /soft/g09.c01/g09/l1.exe /scr/macias/389603.qcexmaster_vib5_-0.20/Gau-25767.inp -scrdir=/scr/macias/389603.qcexmaster_vib5_-0.20/
 Entering Link 1 = /soft/g09.c01/g09/l1.exe PID=     25777.
  
 Copyright (c) 1988,1990,1992,1993,1995,1998,2003,2009,2011,
            Gaussian, Inc.  All Rights Reserved.
  
 This is part of the Gaussian(R) 09 program.  It is based on
 the Gaussian(R) 03 system (copyright 2003, Gaussian, Inc.),
 the Gaussian(R) 98 system (copyright 1998, Gaussian, Inc.),
 the Gaussian(R) 94 system (copyright 1995, Gaussian, Inc.),
 the Gaussian 92(TM) system (copyright 1992, Gaussian, Inc.),
 the Gaussian 90(TM) system (copyright 1990, Gaussian, Inc.),
 the Gaussian 88(TM) system (copyright 1988, Gaussian, Inc.),
 the Gaussian 86(TM) system (copyright 1986, Carnegie Mellon
 University), and the Gaussian 82(TM) system (copyright 1983,
 Carnegie Mellon University). Gaussian is a federally registered
 trademark of Gaussian, Inc.
  
 This software contains proprietary and confidential information,
 including trade secrets, belonging to Gaussian, Inc.
  
 This software is provided under written license and may be
 used, copied, transmitted, or stored only in accord with that
 written license.
  
 The following legend is applicable only to US Government
 contracts under FAR:
  
                    RESTRICTED RIGHTS LEGEND
  
 Use, reproduction and disclosure by the US Government is
 subject to restrictions as set forth in subparagraphs (a)
 and (c) of the Commercial Computer Software - Restricted
 Rights clause in FAR 52.227-19.
  
 Gaussian, Inc.
 340 Quinnipiac St., Bldg. 40, Wallingford CT 06492
  
  
 ---------------------------------------------------------------
 Warning -- This program may not be used in any manner that
 competes with the business of Gaussian, Inc. or will provide
 assistance to any competitor of Gaussian, Inc.  The licensee
 of this program is prohibited from giving any competitor of
 Gaussian, Inc. access to this program.  By using this program,
 the user acknowledges that Gaussian, Inc. is engaged in the
 business of creating and licensing software in the field of
 computational chemistry and represents and warrants to the
 licensee that it is not a competitor of Gaussian, Inc. and that
 it will not use this program in any manner prohibited above.
 ---------------------------------------------------------------
  

 Cite this work as:
 Gaussian 09, Revision C.01,
 M. J. Frisch, G. W. Trucks, H. B. Schlegel, G. E. Scuseria, 
 M. A. Robb, J. R. Cheeseman, G. Scalmani, V. Barone, B. Mennucci, 
 G. A. Petersson, H. Nakatsuji, M. Caricato, X. Li, H. P. Hratchian, 
 A. F. Izmaylov, J. Bloino, G. Zheng, J. L. Sonnenberg, M. Hada, 
 M. Ehara, K. Toyota, R. Fukuda, J. Hasegawa, M. Ishida, T. Nakajima, 
 Y. Honda, O. Kitao, H. Nakai, T. Vreven, J. A. Montgomery, Jr., 
 J. E. Peralta, F. Ogliaro, M. Bearpark, J. J. Heyd, E. Brothers, 
 K. N. Kudin, V. N. Staroverov, T. Keith, R. Kobayashi, J. Normand, 
 K. Raghavachari, A. Rendell, J. C. Burant, S. S. Iyengar, J. Tomasi, 
 M. Cossi, N. Rega, J. M. Millam, M. Klene, J. E. Knox, J. B. Cross, 
 V. Bakken, C. Adamo, J. Jaramillo, R. Gomperts, R. E. Stratmann, 
 O. Yazyev, A. J. Austin, R. Cammi, C. Pomelli, J. W. Ochterski, 
 R. L. Martin, K. Morokuma, V. G. Zakrzewski, G. A. Voth, 
 P. Salvador, J. J. Dannenberg, S. Dapprich, A. D. Daniels, 
 O. Farkas, J. B. Foresman, J. V. Ortiz, J. Cioslowski, 
 and D. J. Fox, Gaussian, Inc., Wallingford CT, 2010.
 
  
 -----  Compilado por  -----------------------------------------
  
  Servicio de Calculo | Servicio de Informatica U. de Valencia
     calculo@uv.es    |  E-46100 Burjassot (Valencia) SPAIN
  
 ---------------------------------------------------------------
  
 ******************************************
 Gaussian 09:  EM64L-G09RevC.01 23-Sep-2011
                20-Aug-2025 
 ******************************************
 %chk=opt_freq.chk
 %nproc=6
 Will use up to    6 processors via shared memory.
 %mem=20GB
 Default route:  CacheSize=131072
 -----------------------
 #sp wB97XD/6-311+G(3df)
 -----------------------
 1/4=131072,38=1/1;
 2/4=131072,12=2,17=6,18=5,40=1/2;
 3/4=131072,5=4,6=6,7=16,11=2,16=1,25=1,30=1,74=-58/1,2,3;
 4/4=131072/1;
 5/4=131072,5=2,38=5/2;
 6/4=131072,7=2,8=2,9=2,10=2,28=1/1;
 99/4=131072,5=1,9=1/99;
 ---------------------
 Optimizacion del hoso
 ---------------------
 Charge =  0 Multiplicity = 2
 Symbolic Z-Matrix:
 S                    -0.09884  -0.52001   0.01631 
 O                     1.30013   0.26447  -0.04104 
 O                    -1.26764   0.62944  -0.02204 
 H                     1.37152   1.19485   0.23768 
 
                          Input orientation:                          
 ---------------------------------------------------------------------
 Center     Atomic      Atomic             Coordinates (Angstroms)
 Number     Number       Type             X           Y           Z
 ---------------------------------------------------------------------
      1         16           0       -0.098843   -0.520008    0.016308
      2          8           0        1.300132    0.264471   -0.041040
      3          8           0       -1.267636    0.629438   -0.022037
      4          1           0        1.371521    1.194845    0.237681
 ---------------------------------------------------------------------
                    Distance matrix (angstroms):
                    1          2          3          4
     1  S    0.000000
     2  O    1.604938   0.000000
     3  O    1.639748   2.593645   0.000000
     4  H    2.269735   0.973847   2.711510   0.000000
 Stoichiometry    HO2S(2)
 Framework group  C1[X(HO2S)]
 Deg. of freedom     6
 Full point group                 C1      NOp   1
 Largest Abelian subgroup         C1      NOp   1
 Largest concise Abelian subgroup C1      NOp   1
                         Standard orientation:                         
 ---------------------------------------------------------------------
 Center     Atomic      Atomic             Coordinates (Angstroms)
 Number     Number       Type             X           Y           Z
 ---------------------------------------------------------------------
      1         16           0       -0.068068   -0.526056    0.014281
      2          8           0        1.279782    0.343289   -0.043752
      3          8           0       -1.305493    0.549449   -0.014718
      4          1           0        1.294772    1.274986    0.239257
 ---------------------------------------------------------------------
 Rotational constants (GHZ):     29.3842077      9.1168269      6.9752601
 Standard basis: 6-311+G(3df) (5D, 7F)
 There are   128 symmetry adapted basis functions of A   symmetry.
 Integral buffers will be    131072 words long.
 Raffenetti 2 integral format.
 Two-electron integral symmetry is turned on.
   128 basis functions,   193 primitive gaussians,   146 cartesian basis functions
    17 alpha electrons       16 beta electrons
       nuclear repulsion energy       106.2084189612 Hartrees.
 NAtoms=    4 NActive=    4 NUniq=    4 SFac= 1.00D+00 NAtFMM=   60 NAOKFM=F Big=F
 Nuclear repulsion after empirical dispersion term =      106.2081226576 Hartrees.
 One-electron integrals computed using PRISM.
 NBasis=   128 RedAO= T  NBF=   128
 NBsUse=   128 1.00D-06 NBFU=   128
 Harris functional with IExCor= 4639 diagonalized for initial guess.
 ExpMin= 4.05D-02 ExpMax= 9.34D+04 ExpMxC= 3.17D+03 IAcc=2 IRadAn=         4 AccDes= 0.00D+00
 HarFok:  IExCor= 4639 AccDes= 0.00D+00 IRadAn=         4 IDoV= 1
 ScaDFX=  1.000000  1.000000  1.000000  1.000000
 FoFCou: FMM=F IPFlag=           0 FMFlag=      100000 FMFlg1=           0
         NFxFlg=           0 DoJE=T BraDBF=F KetDBF=T FulRan=T
         Omega=  0.000000  0.000000  1.000000  0.000000  0.000000 ICntrl=     500 IOpCl=  0
         NMat0=    1 NMatS0=    1 NMatT0=    0 NMatD0=    1 NMtDS0=    0 NMtDT0=    0
         I1Cent=           4 NGrid=           0.
 Petite list used in FoFCou.
 Initial guess orbital symmetries:
 Alpha Orbitals:
       Occupied  (A) (A) (A) (A) (A) (A) (A) (A) (A) (A) (A) (A)
                 (A) (A) (A) (A) (A)
       Virtual   (A) (A) (A) (A) (A) (A) (A) (A) (A) (A) (A) (A)
                 (A) (A) (A) (A) (A) (A) (A) (A) (A) (A) (A) (A)
                 (A) (A) (A) (A) (A) (A) (A) (A) (A) (A) (A) (A)
                 (A) (A) (A) (A) (A) (A) (A) (A) (A) (A) (A) (A)
                 (A) (A) (A) (A) (A) (A) (A) (A) (A) (A) (A) (A)
                 (A) (A) (A) (A) (A) (A) (A) (A) (A) (A) (A) (A)
                 (A) (A) (A) (A) (A) (A) (A) (A) (A) (A) (A) (A)
                 (A) (A) (A) (A) (A) (A) (A) (A) (A) (A) (A) (A)
                 (A) (A) (A) (A) (A) (A) (A) (A) (A) (A) (A) (A)
                 (A) (A) (A)
 Beta  Orbitals:
       Occupied  (A) (A) (A) (A) (A) (A) (A) (A) (A) (A) (A) (A)
                 (A) (A) (A) (A)
       Virtual   (A) (A) (A) (A) (A) (A) (A) (A) (A) (A) (A) (A)
                 (A) (A) (A) (A) (A) (A) (A) (A) (A) (A) (A) (A)
                 (A) (A) (A) (A) (A) (A) (A) (A) (A) (A) (A) (A)
                 (A) (A) (A) (A) (A) (A) (A) (A) (A) (A) (A) (A)
                 (A) (A) (A) (A) (A) (A) (A) (A) (A) (A) (A) (A)
                 (A) (A) (A) (A) (A) (A) (A) (A) (A) (A) (A) (A)
                 (A) (A) (A) (A) (A) (A) (A) (A) (A) (A) (A) (A)
                 (A) (A) (A) (A) (A) (A) (A) (A) (A) (A) (A) (A)
                 (A) (A) (A) (A) (A) (A) (A) (A) (A) (A) (A) (A)
                 (A) (A) (A) (A)
 The electronic state of the initial guess is 2-A.
 Initial guess <Sx>= 0.0000 <Sy>= 0.0000 <Sz>= 0.5000 <S**2>= 0.7500 S= 0.5000
 Requested convergence on RMS density matrix=1.00D-08 within 128 cycles.
 Requested convergence on MAX density matrix=1.00D-06.
 Requested convergence on             energy=1.00D-06.
 No special actions if energy rises.
 FoFJK:  IHMeth= 1 ICntrl=     0 DoSepK=T KAlg= 1 I1Cent= 0 FoldK=F
 FoFJK:  IHMeth= 1 ICntrl=     0 DoSepK=T KAlg= 1 I1Cent= 0 FoldK=F
 FoFJK:  IHMeth= 1 ICntrl=     0 DoSepK=T KAlg= 1 I1Cent= 0 FoldK=F
 FoFJK:  IHMeth= 1 ICntrl=     0 DoSepK=T KAlg= 1 I1Cent= 0 FoldK=F
 FoFJK:  IHMeth= 1 ICntrl=     0 DoSepK=T KAlg= 1 I1Cent= 0 FoldK=F
 FoFJK:  IHMeth= 1 ICntrl=     0 DoSepK=T KAlg= 1 I1Cent= 0 FoldK=F
 FoFJK:  IHMeth= 1 ICntrl=     0 DoSepK=T KAlg= 1 I1Cent= 0 FoldK=F
 FoFJK:  IHMeth= 1 ICntrl=     0 DoSepK=T KAlg= 1 I1Cent= 0 FoldK=F
 FoFJK:  IHMeth= 1 ICntrl=     0 DoSepK=T KAlg= 1 I1Cent= 0 FoldK=F
 FoFJK:  IHMeth= 1 ICntrl=     0 DoSepK=T KAlg= 1 I1Cent= 0 FoldK=F
 FoFJK:  IHMeth= 1 ICntrl=     0 DoSepK=T KAlg= 1 I1Cent= 0 FoldK=F
 FoFJK:  IHMeth= 1 ICntrl=     0 DoSepK=T KAlg= 1 I1Cent= 0 FoldK=F
 FoFJK:  IHMeth= 1 ICntrl=     0 DoSepK=T KAlg= 1 I1Cent= 0 FoldK=F
 FoFJK:  IHMeth= 1 ICntrl=     0 DoSepK=T KAlg= 1 I1Cent= 0 FoldK=F
 FoFJK:  IHMeth= 1 ICntrl=     0 DoSepK=T KAlg= 1 I1Cent= 0 FoldK=F
 FoFJK:  IHMeth= 1 ICntrl=     0 DoSepK=T KAlg= 1 I1Cent= 0 FoldK=F
 FoFJK:  IHMeth= 1 ICntrl=     0 DoSepK=T KAlg= 1 I1Cent= 0 FoldK=F
 SCF Done:  E(UwB97XD) =  -549.194579141     A.U. after   17 cycles
             Convg  =    0.3182D-08             -V/T =  2.0023
 <Sx>= 0.0000 <Sy>= 0.0000 <Sz>= 0.5000 <S**2>= 0.7570 S= 0.5035
 <L.S>= 0.000000000000E+00
 Annihilation of the first spin contaminant:
 S**2 before annihilation     0.7570,   after     0.7500

 **********************************************************************

            Population analysis using the SCF density.

 **********************************************************************

 Orbital symmetries:
 Alpha Orbitals:
       Occupied  (A) (A) (A) (A) (A) (A) (A) (A) (A) (A) (A) (A)
                 (A) (A) (A) (A) (A)
       Virtual   (A) (A) (A) (A) (A) (A) (A) (A) (A) (A) (A) (A)
                 (A) (A) (A) (A) (A) (A) (A) (A) (A) (A) (A) (A)
                 (A) (A) (A) (A) (A) (A) (A) (A) (A) (A) (A) (A)
                 (A) (A) (A) (A) (A) (A) (A) (A) (A) (A) (A) (A)
                 (A) (A) (A) (A) (A) (A) (A) (A) (A) (A) (A) (A)
                 (A) (A) (A) (A) (A) (A) (A) (A) (A) (A) (A) (A)
                 (A) (A) (A) (A) (A) (A) (A) (A) (A) (A) (A) (A)
                 (A) (A) (A) (A) (A) (A) (A) (A) (A) (A) (A) (A)
                 (A) (A) (A) (A) (A) (A) (A) (A) (A) (A) (A) (A)
                 (A) (A) (A)
 Beta  Orbitals:
       Occupied  (A) (A) (A) (A) (A) (A) (A) (A) (A) (A) (A) (A)
                 (A) (A) (A) (A)
       Virtual   (A) (A) (A) (A) (A) (A) (A) (A) (A) (A) (A) (A)
                 (A) (A) (A) (A) (A) (A) (A) (A) (A) (A) (A) (A)
                 (A) (A) (A) (A) (A) (A) (A) (A) (A) (A) (A) (A)
                 (A) (A) (A) (A) (A) (A) (A) (A) (A) (A) (A) (A)
                 (A) (A) (A) (A) (A) (A) (A) (A) (A) (A) (A) (A)
                 (A) (A) (A) (A) (A) (A) (A) (A) (A) (A) (A) (A)
                 (A) (A) (A) (A) (A) (A) (A) (A) (A) (A) (A) (A)
                 (A) (A) (A) (A) (A) (A) (A) (A) (A) (A) (A) (A)
                 (A) (A) (A) (A) (A) (A) (A) (A) (A) (A) (A) (A)
                 (A) (A) (A) (A)
 The electronic state is 2-A.
 Alpha  occ. eigenvalues --  -89.16075 -19.32663 -19.28698  -8.18589  -6.13574
 Alpha  occ. eigenvalues --   -6.13194  -6.12970  -1.21068  -1.09209  -0.82744
 Alpha  occ. eigenvalues --   -0.64155  -0.55772  -0.55198  -0.47999  -0.45785
 Alpha  occ. eigenvalues --   -0.40786  -0.32912
 Alpha virt. eigenvalues --    0.03138   0.05524   0.06994   0.09462   0.11239
 Alpha virt. eigenvalues --    0.12001   0.17617   0.22745   0.24296   0.24855
 Alpha virt. eigenvalues --    0.26227   0.28557   0.29375   0.32684   0.33256
 Alpha virt. eigenvalues --    0.35326   0.35781   0.38045   0.38623   0.39176
 Alpha virt. eigenvalues --    0.40248   0.46631   0.55467   0.63808   0.78129
 Alpha virt. eigenvalues --    0.81125   0.86796   0.88498   0.93434   0.95025
 Alpha virt. eigenvalues --    0.97411   0.98512   0.99502   1.01373   1.05051
 Alpha virt. eigenvalues --    1.08989   1.09220   1.11861   1.12384   1.15398
 Alpha virt. eigenvalues --    1.21934   1.23257   1.25735   1.35023   1.39968
 Alpha virt. eigenvalues --    1.42905   1.67023   1.67816   1.70305   1.79399
 Alpha virt. eigenvalues --    1.92142   2.02695   2.04976   2.05227   2.13548
 Alpha virt. eigenvalues --    2.17817   2.27339   2.32158   2.39520   3.36853
 Alpha virt. eigenvalues --    3.41029   3.45566   3.47067   3.49679   3.53185
 Alpha virt. eigenvalues --    3.54090   3.63424   3.64155   3.69276   4.51832
 Alpha virt. eigenvalues --    4.52933   4.56611   4.70663   4.76152   4.98447
 Alpha virt. eigenvalues --    5.02979   5.03902   5.04586   5.06079   5.06434
 Alpha virt. eigenvalues --    5.11633   5.12009   5.13316   5.17475   5.19081
 Alpha virt. eigenvalues --    5.39658   5.44227   5.51478   5.51853   5.52934
 Alpha virt. eigenvalues --    5.62815   5.65110   5.84557   6.49815   8.49453
 Alpha virt. eigenvalues --   14.31642  14.34393  14.37049  14.38111  14.40044
 Alpha virt. eigenvalues --   14.42308  14.47060  14.48826  14.58671  14.61572
 Alpha virt. eigenvalues --   17.34328  17.56858  17.67424  50.01674  50.05956
 Alpha virt. eigenvalues --  189.54158
  Beta  occ. eigenvalues --  -89.15721 -19.32439 -19.27603  -8.18273  -6.13370
  Beta  occ. eigenvalues --   -6.12791  -6.12039  -1.20325  -1.06715  -0.80674
  Beta  occ. eigenvalues --   -0.62749  -0.55058  -0.52482  -0.46200  -0.39923
  Beta  occ. eigenvalues --   -0.39454
  Beta virt. eigenvalues --   -0.05945   0.03716   0.06209   0.07257   0.09833
  Beta virt. eigenvalues --    0.12137   0.12268   0.17812   0.22974   0.24556
  Beta virt. eigenvalues --    0.25078   0.27071   0.28848   0.29728   0.32807
  Beta virt. eigenvalues --    0.34214   0.35518   0.36639   0.38764   0.39508
  Beta virt. eigenvalues --    0.39920   0.40422   0.47335   0.55646   0.64187
  Beta virt. eigenvalues --    0.78608   0.81549   0.87313   0.89209   0.93951
  Beta virt. eigenvalues --    0.95615   0.98252   0.99442   1.00949   1.01802
  Beta virt. eigenvalues --    1.05777   1.09601   1.11335   1.12182   1.13024
  Beta virt. eigenvalues --    1.15962   1.22949   1.24486   1.27002   1.35407
  Beta virt. eigenvalues --    1.40936   1.43240   1.69187   1.70032   1.71733
  Beta virt. eigenvalues --    1.80697   1.93024   2.03897   2.05960   2.07149
  Beta virt. eigenvalues --    2.14189   2.18179   2.27730   2.32803   2.39857
  Beta virt. eigenvalues --    3.37660   3.42421   3.47054   3.49700   3.51630
  Beta virt. eigenvalues --    3.54796   3.56455   3.64571   3.64925   3.70050
  Beta virt. eigenvalues --    4.51991   4.53405   4.57321   4.71416   4.76449
  Beta virt. eigenvalues --    4.98972   5.03868   5.04718   5.05221   5.07348
  Beta virt. eigenvalues --    5.10926   5.14082   5.14640   5.14783   5.19160
  Beta virt. eigenvalues --    5.20135   5.40315   5.44828   5.52396   5.53172
  Beta virt. eigenvalues --    5.54242   5.64367   5.65326   5.85083   6.50319
  Beta virt. eigenvalues --    8.49787  14.32821  14.36435  14.39448  14.41823
  Beta virt. eigenvalues --   14.43468  14.46997  14.48234  14.49684  14.59278
  Beta virt. eigenvalues --   14.64166  17.35600  17.57099  17.67709  50.01942
  Beta virt. eigenvalues --   50.06930 189.54439
          Condensed to atoms (all electrons):
              1          2          3          4
     1  S   15.262895   0.004089   0.220530   0.005949
     2  O    0.004089   8.367060  -0.001523   0.207769
     3  O    0.220530  -0.001523   8.212071   0.000895
     4  H    0.005949   0.207769   0.000895   0.282556
 Mulliken atomic charges:
              1
     1  S    0.506537
     2  O   -0.577395
     3  O   -0.431973
     4  H    0.502831
 Sum of Mulliken atomic charges =   0.00000
 Mulliken charges with hydrogens summed into heavy atoms:
              1
     1  S    0.506537
     2  O   -0.074564
     3  O   -0.431973
 Sum of Mulliken charges with hydrogens summed into heavy atoms =   0.00000
          Atomic-Atomic Spin Densities.
              1          2          3          4
     1  S    0.769711  -0.088173  -0.144962  -0.000342
     2  O   -0.088173   0.135290   0.015198  -0.003171
     3  O   -0.144962   0.015198   0.534976  -0.000550
     4  H   -0.000342  -0.003171  -0.000550   0.004027
 Mulliken atomic spin densities:
              1
     1  S    0.536233
     2  O    0.059143
     3  O    0.404661
     4  H   -0.000037
 Sum of Mulliken atomic spin densities =   1.00000
 Electronic spatial extent (au):  <R**2>=            188.5380
 Charge=              0.0000 electrons
 Dipole moment (field-independent basis, Debye):
    X=              2.1342    Y=             -0.0307    Z=              0.5241  Tot=              2.1978
 Quadrupole moment (field-independent basis, Debye-Ang):
   XX=            -26.8579   YY=            -20.3918   ZZ=            -23.9307
   XY=              3.7192   XZ=              0.7612   YZ=              0.8294
 Traceless Quadrupole moment (field-independent basis, Debye-Ang):
   XX=             -3.1311   YY=              3.3350   ZZ=             -0.2039
   XY=              3.7192   XZ=              0.7612   YZ=              0.8294
 Octapole moment (field-independent basis, Debye-Ang**2):
  XXX=              4.9106  YYY=              5.8217  ZZZ=              0.0084  XYY=              5.6291
  XXY=              2.0660  XXZ=              0.9351  XZZ=              0.6754  YZZ=              1.0988
  YYZ=              1.0847  XYZ=              1.0785
 Hexadecapole moment (field-independent basis, Debye-Ang**3):
 XXXX=           -149.8420 YYYY=            -55.1588 ZZZZ=            -25.4877 XXXY=              7.2076
 XXXZ=              1.5314 YYYX=              8.9494 YYYZ=              1.6329 ZZZX=              0.4121
 ZZZY=              0.5400 XXYY=            -26.9995 XXZZ=            -28.4035 YYZZ=            -14.8656
 XXYZ=              1.5023 YYXZ=              1.4595 ZZXY=              0.5998
 N-N= 1.062081226576D+02 E-N=-2.265867895749D+03  KE= 8.203921669637D+02
                          Isotropic Fermi Contact Couplings
        Atom                 a.u.       MegaHertz       Gauss      10(-4) cm-1
     1  S(33)              0.09430      32.38834      11.55697      10.80359
     2  O(17)              0.01949     -11.81768      -4.21684      -3.94195
     3  O(17)              0.05469     -33.15005     -11.82876     -11.05767
     4  H(1)               0.00024       1.07056       0.38200       0.35710
 --------------------------------------------------------
       Center         ----  Spin Dipole Couplings  ----
                      3XX-RR        3YY-RR        3ZZ-RR
 --------------------------------------------------------
     1   Atom       -1.413992     -1.503941      2.917933
     2   Atom       -0.232783     -0.188211      0.420994
     3   Atom       -0.929392     -0.927141      1.856533
     4   Atom       -0.009078      0.018464     -0.009385
 --------------------------------------------------------
                        XY            XZ            YZ
 --------------------------------------------------------
     1   Atom        0.028495     -0.092163      0.073040
     2   Atom        0.007692      0.016641     -0.102301
     3   Atom        0.005257      0.097591     -0.003276
     4   Atom        0.007041      0.001584      0.004015
 --------------------------------------------------------


 ---------------------------------------------------------------------------------
              Anisotropic Spin Dipole Couplings in Principal Axis System
 ---------------------------------------------------------------------------------

       Atom             a.u.   MegaHertz   Gauss  10(-4) cm-1        Axes

              Baa    -1.5143   -62.085   -22.153   -20.709 -0.2917  0.9563 -0.0218
     1 S(33)  Bbb    -1.4068   -57.677   -20.580   -19.239  0.9563  0.2921  0.0154
              Bcc     2.9211   119.762    42.734    39.948 -0.0211  0.0164  0.9996
 
              Baa    -0.2365    17.111     6.106     5.708  0.9506 -0.3022 -0.0711
     2 O(17)  Bbb    -0.2016    14.587     5.205     4.866  0.3096  0.9396  0.1461
              Bcc     0.4381   -31.698   -11.310   -10.573  0.0226 -0.1609  0.9867
 
              Baa    -0.9360    67.732    24.168    22.593  0.8557 -0.5165 -0.0305
     3 O(17)  Bbb    -0.9239    66.853    23.855    22.300  0.5162  0.8563 -0.0171
              Bcc     1.8600  -134.585   -48.023   -44.893  0.0350 -0.0011  0.9994
 
              Baa    -0.0111    -5.919    -2.112    -1.974  0.8710 -0.1437 -0.4697
     4 H(1)   Bbb    -0.0097    -5.160    -1.841    -1.721  0.4317 -0.2324  0.8716
              Bcc     0.0208    11.080     3.954     3.696  0.2344  0.9619  0.1404
 

 ---------------------------------------------------------------------------------

 1\1\ CPUSERV-QCEXNOD15\SP\UwB97XD\6-311+G(3df)\H1O2S1(2)\VPEREZ\20-Aug
 -2025\0\\#sp wB97XD/6-311+G(3df)\\Optimizacion del hoso\\0,2\S,0,-0.09
 8843,-0.520008,0.016308\O,0,1.300132,0.264471,-0.04104\O,0,-1.267636,0
 .629438,-0.022037\H,0,1.371521,1.194845,0.237681\\Version=EM64L-G09Rev
 C.01\State=2-A\HF=-549.1945791\S2=0.756954\S2-1=0.\S2A=0.75003\RMSD=3.
 182e-09\Dipole=0.8366672,-0.0627023,0.2091911\Quadrupole=-1.9738283,2.
 1272669,-0.1534386,3.0404409,0.5821857,0.5793763\PG=C01 [X(H1O2S1)]\\@


 UNLESS WE CHANGE DIRECTIONS, WE WILL WIND UP WHERE WE ARE HEADED.
     -- CONFUCIUS
 Job cpu time:  0 days  0 hours  5 minutes 54.7 seconds.
 File lengths (MBytes):  RWF=     21 Int=      0 D2E=      0 Chk=      2 Scr=      1
 Normal termination of Gaussian 09 at Wed Aug 20 23:00:07 2025.
