 Entering Gaussian System, Link 0=g09
 Initial command:
 /soft/g09.c01/g09/l1.exe /scr/macias/389596.qcexmaster_vib4_-0.10/Gau-25708.inp -scrdir=/scr/macias/389596.qcexmaster_vib4_-0.10/
 Entering Link 1 = /soft/g09.c01/g09/l1.exe PID=     25719.
  
 Copyright (c) 1988,1990,1992,1993,1995,1998,2003,2009,2011,
            Gaussian, Inc.  All Rights Reserved.
  
 This is part of the Gaussian(R) 09 program.  It is based on
 the Gaussian(R) 03 system (copyright 2003, Gaussian, Inc.),
 the Gaussian(R) 98 system (copyright 1998, Gaussian, Inc.),
 the Gaussian(R) 94 system (copyright 1995, Gaussian, Inc.),
 the Gaussian 92(TM) system (copyright 1992, Gaussian, Inc.),
 the Gaussian 90(TM) system (copyright 1990, Gaussian, Inc.),
 the Gaussian 88(TM) system (copyright 1988, Gaussian, Inc.),
 the Gaussian 86(TM) system (copyright 1986, Carnegie Mellon
 University), and the Gaussian 82(TM) system (copyright 1983,
 Carnegie Mellon University). Gaussian is a federally registered
 trademark of Gaussian, Inc.
  
 This software contains proprietary and confidential information,
 including trade secrets, belonging to Gaussian, Inc.
  
 This software is provided under written license and may be
 used, copied, transmitted, or stored only in accord with that
 written license.
  
 The following legend is applicable only to US Government
 contracts under FAR:
  
                    RESTRICTED RIGHTS LEGEND
  
 Use, reproduction and disclosure by the US Government is
 subject to restrictions as set forth in subparagraphs (a)
 and (c) of the Commercial Computer Software - Restricted
 Rights clause in FAR 52.227-19.
  
 Gaussian, Inc.
 340 Quinnipiac St., Bldg. 40, Wallingford CT 06492
  
  
 ---------------------------------------------------------------
 Warning -- This program may not be used in any manner that
 competes with the business of Gaussian, Inc. or will provide
 assistance to any competitor of Gaussian, Inc.  The licensee
 of this program is prohibited from giving any competitor of
 Gaussian, Inc. access to this program.  By using this program,
 the user acknowledges that Gaussian, Inc. is engaged in the
 business of creating and licensing software in the field of
 computational chemistry and represents and warrants to the
 licensee that it is not a competitor of Gaussian, Inc. and that
 it will not use this program in any manner prohibited above.
 ---------------------------------------------------------------
  

 Cite this work as:
 Gaussian 09, Revision C.01,
 M. J. Frisch, G. W. Trucks, H. B. Schlegel, G. E. Scuseria, 
 M. A. Robb, J. R. Cheeseman, G. Scalmani, V. Barone, B. Mennucci, 
 G. A. Petersson, H. Nakatsuji, M. Caricato, X. Li, H. P. Hratchian, 
 A. F. Izmaylov, J. Bloino, G. Zheng, J. L. Sonnenberg, M. Hada, 
 M. Ehara, K. Toyota, R. Fukuda, J. Hasegawa, M. Ishida, T. Nakajima, 
 Y. Honda, O. Kitao, H. Nakai, T. Vreven, J. A. Montgomery, Jr., 
 J. E. Peralta, F. Ogliaro, M. Bearpark, J. J. Heyd, E. Brothers, 
 K. N. Kudin, V. N. Staroverov, T. Keith, R. Kobayashi, J. Normand, 
 K. Raghavachari, A. Rendell, J. C. Burant, S. S. Iyengar, J. Tomasi, 
 M. Cossi, N. Rega, J. M. Millam, M. Klene, J. E. Knox, J. B. Cross, 
 V. Bakken, C. Adamo, J. Jaramillo, R. Gomperts, R. E. Stratmann, 
 O. Yazyev, A. J. Austin, R. Cammi, C. Pomelli, J. W. Ochterski, 
 R. L. Martin, K. Morokuma, V. G. Zakrzewski, G. A. Voth, 
 P. Salvador, J. J. Dannenberg, S. Dapprich, A. D. Daniels, 
 O. Farkas, J. B. Foresman, J. V. Ortiz, J. Cioslowski, 
 and D. J. Fox, Gaussian, Inc., Wallingford CT, 2010.
 
  
 -----  Compilado por  -----------------------------------------
  
  Servicio de Calculo | Servicio de Informatica U. de Valencia
     calculo@uv.es    |  E-46100 Burjassot (Valencia) SPAIN
  
 ---------------------------------------------------------------
  
 ******************************************
 Gaussian 09:  EM64L-G09RevC.01 23-Sep-2011
                20-Aug-2025 
 ******************************************
 %chk=opt_freq.chk
 %nproc=6
 Will use up to    6 processors via shared memory.
 %mem=20GB
 Default route:  CacheSize=131072
 -----------------------
 #sp wB97XD/6-311+G(3df)
 -----------------------
 1/4=131072,38=1/1;
 2/4=131072,12=2,17=6,18=5,40=1/2;
 3/4=131072,5=4,6=6,7=16,11=2,16=1,25=1,30=1,74=-58/1,2,3;
 4/4=131072/1;
 5/4=131072,5=2,38=5/2;
 6/4=131072,7=2,8=2,9=2,10=2,28=1/1;
 99/4=131072,5=1,9=1/99;
 ---------------------
 Optimizacion del hoso
 ---------------------
 Charge =  0 Multiplicity = 2
 Symbolic Z-Matrix:
 S                    -0.14284  -0.47601   0.01531 
 O                     1.30513   0.26247  -0.04304 
 O                    -1.17864   0.54244  -0.02004 
 H                     1.32152   1.18785   0.24268 
 
                          Input orientation:                          
 ---------------------------------------------------------------------
 Center     Atomic      Atomic             Coordinates (Angstroms)
 Number     Number       Type             X           Y           Z
 ---------------------------------------------------------------------
      1         16           0       -0.142843   -0.476008    0.015308
      2          8           0        1.305132    0.262471   -0.043040
      3          8           0       -1.178636    0.542438   -0.020037
      4          1           0        1.321521    1.187845    0.242681
 ---------------------------------------------------------------------
                    Distance matrix (angstroms):
                    1          2          3          4
     1  S    0.000000
     2  O    1.626465   0.000000
     3  O    1.453048   2.499603   0.000000
     4  H    2.228108   0.968619   2.595449   0.000000
 Stoichiometry    HO2S(2)
 Framework group  C1[X(HO2S)]
 Deg. of freedom     6
 Full point group                 C1      NOp   1
 Largest Abelian subgroup         C1      NOp   1
 Largest concise Abelian subgroup C1      NOp   1
                         Standard orientation:                         
 ---------------------------------------------------------------------
 Center     Atomic      Atomic             Coordinates (Angstroms)
 Number     Number       Type             X           Y           Z
 ---------------------------------------------------------------------
      1         16           0       -0.151418   -0.474133    0.015603
      2          8           0        1.307425    0.242569   -0.043571
      3          8           0       -1.171837    0.559775   -0.017988
      4          1           0        1.337975    1.167374    0.242829
 ---------------------------------------------------------------------
 Rotational constants (GHZ):     34.7881347      9.7230517      7.6206206
 Standard basis: 6-311+G(3df) (5D, 7F)
 There are   128 symmetry adapted basis functions of A   symmetry.
 Integral buffers will be    131072 words long.
 Raffenetti 2 integral format.
 Two-electron integral symmetry is turned on.
   128 basis functions,   193 primitive gaussians,   146 cartesian basis functions
    17 alpha electrons       16 beta electrons
       nuclear repulsion energy       111.6116926968 Hartrees.
 NAtoms=    4 NActive=    4 NUniq=    4 SFac= 1.00D+00 NAtFMM=   60 NAOKFM=F Big=F
 Nuclear repulsion after empirical dispersion term =      111.6114240527 Hartrees.
 One-electron integrals computed using PRISM.
 NBasis=   128 RedAO= T  NBF=   128
 NBsUse=   128 1.00D-06 NBFU=   128
 Harris functional with IExCor= 4639 diagonalized for initial guess.
 ExpMin= 4.05D-02 ExpMax= 9.34D+04 ExpMxC= 3.17D+03 IAcc=2 IRadAn=         4 AccDes= 0.00D+00
 HarFok:  IExCor= 4639 AccDes= 0.00D+00 IRadAn=         4 IDoV= 1
 ScaDFX=  1.000000  1.000000  1.000000  1.000000
 FoFCou: FMM=F IPFlag=           0 FMFlag=      100000 FMFlg1=           0
         NFxFlg=           0 DoJE=T BraDBF=F KetDBF=T FulRan=T
         Omega=  0.000000  0.000000  1.000000  0.000000  0.000000 ICntrl=     500 IOpCl=  0
         NMat0=    1 NMatS0=    1 NMatT0=    0 NMatD0=    1 NMtDS0=    0 NMtDT0=    0
         I1Cent=           4 NGrid=           0.
 Petite list used in FoFCou.
 Initial guess orbital symmetries:
 Alpha Orbitals:
       Occupied  (A) (A) (A) (A) (A) (A) (A) (A) (A) (A) (A) (A)
                 (A) (A) (A) (A) (A)
       Virtual   (A) (A) (A) (A) (A) (A) (A) (A) (A) (A) (A) (A)
                 (A) (A) (A) (A) (A) (A) (A) (A) (A) (A) (A) (A)
                 (A) (A) (A) (A) (A) (A) (A) (A) (A) (A) (A) (A)
                 (A) (A) (A) (A) (A) (A) (A) (A) (A) (A) (A) (A)
                 (A) (A) (A) (A) (A) (A) (A) (A) (A) (A) (A) (A)
                 (A) (A) (A) (A) (A) (A) (A) (A) (A) (A) (A) (A)
                 (A) (A) (A) (A) (A) (A) (A) (A) (A) (A) (A) (A)
                 (A) (A) (A) (A) (A) (A) (A) (A) (A) (A) (A) (A)
                 (A) (A) (A) (A) (A) (A) (A) (A) (A) (A) (A) (A)
                 (A) (A) (A)
 Beta  Orbitals:
       Occupied  (A) (A) (A) (A) (A) (A) (A) (A) (A) (A) (A) (A)
                 (A) (A) (A) (A)
       Virtual   (A) (A) (A) (A) (A) (A) (A) (A) (A) (A) (A) (A)
                 (A) (A) (A) (A) (A) (A) (A) (A) (A) (A) (A) (A)
                 (A) (A) (A) (A) (A) (A) (A) (A) (A) (A) (A) (A)
                 (A) (A) (A) (A) (A) (A) (A) (A) (A) (A) (A) (A)
                 (A) (A) (A) (A) (A) (A) (A) (A) (A) (A) (A) (A)
                 (A) (A) (A) (A) (A) (A) (A) (A) (A) (A) (A) (A)
                 (A) (A) (A) (A) (A) (A) (A) (A) (A) (A) (A) (A)
                 (A) (A) (A) (A) (A) (A) (A) (A) (A) (A) (A) (A)
                 (A) (A) (A) (A) (A) (A) (A) (A) (A) (A) (A) (A)
                 (A) (A) (A) (A)
 The electronic state of the initial guess is 2-A.
 Initial guess <Sx>= 0.0000 <Sy>= 0.0000 <Sz>= 0.5000 <S**2>= 0.7500 S= 0.5000
 Requested convergence on RMS density matrix=1.00D-08 within 128 cycles.
 Requested convergence on MAX density matrix=1.00D-06.
 Requested convergence on             energy=1.00D-06.
 No special actions if energy rises.
 FoFJK:  IHMeth= 1 ICntrl=     0 DoSepK=T KAlg= 1 I1Cent= 0 FoldK=F
 FoFJK:  IHMeth= 1 ICntrl=     0 DoSepK=T KAlg= 1 I1Cent= 0 FoldK=F
 FoFJK:  IHMeth= 1 ICntrl=     0 DoSepK=T KAlg= 1 I1Cent= 0 FoldK=F
 FoFJK:  IHMeth= 1 ICntrl=     0 DoSepK=T KAlg= 1 I1Cent= 0 FoldK=F
 FoFJK:  IHMeth= 1 ICntrl=     0 DoSepK=T KAlg= 1 I1Cent= 0 FoldK=F
 FoFJK:  IHMeth= 1 ICntrl=     0 DoSepK=T KAlg= 1 I1Cent= 0 FoldK=F
 FoFJK:  IHMeth= 1 ICntrl=     0 DoSepK=T KAlg= 1 I1Cent= 0 FoldK=F
 FoFJK:  IHMeth= 1 ICntrl=     0 DoSepK=T KAlg= 1 I1Cent= 0 FoldK=F
 FoFJK:  IHMeth= 1 ICntrl=     0 DoSepK=T KAlg= 1 I1Cent= 0 FoldK=F
 FoFJK:  IHMeth= 1 ICntrl=     0 DoSepK=T KAlg= 1 I1Cent= 0 FoldK=F
 FoFJK:  IHMeth= 1 ICntrl=     0 DoSepK=T KAlg= 1 I1Cent= 0 FoldK=F
 FoFJK:  IHMeth= 1 ICntrl=     0 DoSepK=T KAlg= 1 I1Cent= 0 FoldK=F
 FoFJK:  IHMeth= 1 ICntrl=     0 DoSepK=T KAlg= 1 I1Cent= 0 FoldK=F
 FoFJK:  IHMeth= 1 ICntrl=     0 DoSepK=T KAlg= 1 I1Cent= 0 FoldK=F
 FoFJK:  IHMeth= 1 ICntrl=     0 DoSepK=T KAlg= 1 I1Cent= 0 FoldK=F
 SCF Done:  E(UwB97XD) =  -549.220273130     A.U. after   15 cycles
             Convg  =    0.6459D-08             -V/T =  2.0016
 <Sx>= 0.0000 <Sy>= 0.0000 <Sz>= 0.5000 <S**2>= 0.7554 S= 0.5027
 <L.S>= 0.000000000000E+00
 Annihilation of the first spin contaminant:
 S**2 before annihilation     0.7554,   after     0.7500

 **********************************************************************

            Population analysis using the SCF density.

 **********************************************************************

 Orbital symmetries:
 Alpha Orbitals:
       Occupied  (A) (A) (A) (A) (A) (A) (A) (A) (A) (A) (A) (A)
                 (A) (A) (A) (A) (A)
       Virtual   (A) (A) (A) (A) (A) (A) (A) (A) (A) (A) (A) (A)
                 (A) (A) (A) (A) (A) (A) (A) (A) (A) (A) (A) (A)
                 (A) (A) (A) (A) (A) (A) (A) (A) (A) (A) (A) (A)
                 (A) (A) (A) (A) (A) (A) (A) (A) (A) (A) (A) (A)
                 (A) (A) (A) (A) (A) (A) (A) (A) (A) (A) (A) (A)
                 (A) (A) (A) (A) (A) (A) (A) (A) (A) (A) (A) (A)
                 (A) (A) (A) (A) (A) (A) (A) (A) (A) (A) (A) (A)
                 (A) (A) (A) (A) (A) (A) (A) (A) (A) (A) (A) (A)
                 (A) (A) (A) (A) (A) (A) (A) (A) (A) (A) (A) (A)
                 (A) (A) (A)
 Beta  Orbitals:
       Occupied  (A) (A) (A) (A) (A) (A) (A) (A) (A) (A) (A) (A)
                 (A) (A) (A) (A)
       Virtual   (A) (A) (A) (A) (A) (A) (A) (A) (A) (A) (A) (A)
                 (A) (A) (A) (A) (A) (A) (A) (A) (A) (A) (A) (A)
                 (A) (A) (A) (A) (A) (A) (A) (A) (A) (A) (A) (A)
                 (A) (A) (A) (A) (A) (A) (A) (A) (A) (A) (A) (A)
                 (A) (A) (A) (A) (A) (A) (A) (A) (A) (A) (A) (A)
                 (A) (A) (A) (A) (A) (A) (A) (A) (A) (A) (A) (A)
                 (A) (A) (A) (A) (A) (A) (A) (A) (A) (A) (A) (A)
                 (A) (A) (A) (A) (A) (A) (A) (A) (A) (A) (A) (A)
                 (A) (A) (A) (A) (A) (A) (A) (A) (A) (A) (A) (A)
                 (A) (A) (A) (A)
 The electronic state is 2-A.
 Alpha  occ. eigenvalues --  -89.14884 -19.31330 -19.28132  -8.17620  -6.12564
 Alpha  occ. eigenvalues --   -6.12309  -6.11951  -1.22170  -1.14811  -0.80316
 Alpha  occ. eigenvalues --   -0.63206  -0.57037  -0.56383  -0.50216  -0.46955
 Alpha  occ. eigenvalues --   -0.42419  -0.30723
 Alpha virt. eigenvalues --    0.04816   0.06775   0.07727   0.09415   0.11939
 Alpha virt. eigenvalues --    0.13484   0.18809   0.22764   0.24584   0.25334
 Alpha virt. eigenvalues --    0.26600   0.28420   0.30054   0.32651   0.33027
 Alpha virt. eigenvalues --    0.35407   0.36564   0.38198   0.39453   0.40576
 Alpha virt. eigenvalues --    0.41363   0.50971   0.56459   0.68646   0.78501
 Alpha virt. eigenvalues --    0.80979   0.86641   0.88337   0.93799   0.96328
 Alpha virt. eigenvalues --    0.96565   0.97818   0.99731   1.01836   1.05343
 Alpha virt. eigenvalues --    1.09109   1.10276   1.14152   1.14994   1.17710
 Alpha virt. eigenvalues --    1.22026   1.28411   1.33948   1.37975   1.40997
 Alpha virt. eigenvalues --    1.44512   1.66886   1.68258   1.74941   1.81857
 Alpha virt. eigenvalues --    1.93130   2.02051   2.08796   2.09041   2.14496
 Alpha virt. eigenvalues --    2.20641   2.31035   2.36627   2.42672   3.37844
 Alpha virt. eigenvalues --    3.42310   3.45206   3.47731   3.50069   3.55639
 Alpha virt. eigenvalues --    3.56951   3.64327   3.70809   3.72618   4.53303
 Alpha virt. eigenvalues --    4.57459   4.62228   4.70873   4.91425   4.99113
 Alpha virt. eigenvalues --    5.03697   5.04222   5.04798   5.06672   5.09352
 Alpha virt. eigenvalues --    5.10082   5.11402   5.16955   5.24473   5.24773
 Alpha virt. eigenvalues --    5.43080   5.49610   5.53754   5.58476   5.68485
 Alpha virt. eigenvalues --    5.70498   5.86240   6.00075   6.59145   8.79218
 Alpha virt. eigenvalues --   14.32788  14.35710  14.37412  14.39300  14.41444
 Alpha virt. eigenvalues --   14.46035  14.48112  14.49861  14.62339  14.71268
 Alpha virt. eigenvalues --   17.36292  17.61673  17.91914  50.02987  50.11595
 Alpha virt. eigenvalues --  189.84627
  Beta  occ. eigenvalues --  -89.14499 -19.31089 -19.27251  -8.17277  -6.12337
  Beta  occ. eigenvalues --   -6.11743  -6.11075  -1.20961  -1.13434  -0.78110
  Beta  occ. eigenvalues --   -0.61792  -0.56085  -0.52944  -0.48290  -0.43343
  Beta  occ. eigenvalues --   -0.41248
  Beta virt. eigenvalues --   -0.03666   0.05311   0.07113   0.08165   0.10027
  Beta virt. eigenvalues --    0.12747   0.14363   0.19104   0.23015   0.24907
  Beta virt. eigenvalues --    0.25529   0.27152   0.28754   0.30390   0.32771
  Beta virt. eigenvalues --    0.34200   0.35661   0.36991   0.38884   0.40819
  Beta virt. eigenvalues --    0.41325   0.41885   0.51567   0.56669   0.69159
  Beta virt. eigenvalues --    0.79022   0.81320   0.87064   0.89192   0.94342
  Beta virt. eigenvalues --    0.96763   0.97522   0.98772   1.00481   1.02805
  Beta virt. eigenvalues --    1.06137   1.09985   1.12308   1.14423   1.15487
  Beta virt. eigenvalues --    1.18486   1.23316   1.28876   1.35394   1.38782
  Beta virt. eigenvalues --    1.41324   1.44864   1.69868   1.70326   1.76561
  Beta virt. eigenvalues --    1.83400   1.93950   2.03520   2.09524   2.11371
  Beta virt. eigenvalues --    2.14817   2.21148   2.31484   2.37450   2.43265
  Beta virt. eigenvalues --    3.38747   3.43812   3.47214   3.49027   3.51435
  Beta virt. eigenvalues --    3.56930   3.58693   3.65103   3.71593   3.73313
  Beta virt. eigenvalues --    4.53839   4.57603   4.63110   4.71374   4.92010
  Beta virt. eigenvalues --    4.99664   5.04514   5.05050   5.05440   5.07915
  Beta virt. eigenvalues --    5.11801   5.12965   5.13625   5.17802   5.25427
  Beta virt. eigenvalues --    5.26080   5.43690   5.50115   5.54527   5.59177
  Beta virt. eigenvalues --    5.68905   5.71471   5.87947   6.00591   6.59551
  Beta virt. eigenvalues --    8.79580  14.34084  14.37985  14.40563  14.41197
  Beta virt. eigenvalues --   14.43805  14.48833  14.49320  14.51175  14.62975
  Beta virt. eigenvalues --   14.73275  17.37681  17.61965  17.92237  50.03212
  Beta virt. eigenvalues --   50.12377 189.84930
          Condensed to atoms (all electrons):
              1          2          3          4
     1  S   15.348377  -0.000863   0.138330   0.009357
     2  O   -0.000863   8.408602   0.004587   0.208908
     3  O    0.138330   0.004587   8.234781  -0.001694
     4  H    0.009357   0.208908  -0.001694   0.290989
 Mulliken atomic charges:
              1
     1  S    0.504799
     2  O   -0.621234
     3  O   -0.376004
     4  H    0.492440
 Sum of Mulliken atomic charges =   0.00000
 Mulliken charges with hydrogens summed into heavy atoms:
              1
     1  S    0.504799
     2  O   -0.128794
     3  O   -0.376004
 Sum of Mulliken charges with hydrogens summed into heavy atoms =   0.00000
          Atomic-Atomic Spin Densities.
              1          2          3          4
     1  S    0.944580  -0.101909  -0.199750  -0.000449
     2  O   -0.101909   0.146579   0.019266  -0.003869
     3  O   -0.199750   0.019266   0.477981  -0.000656
     4  H   -0.000449  -0.003869  -0.000656   0.005594
 Mulliken atomic spin densities:
              1
     1  S    0.642472
     2  O    0.060067
     3  O    0.296841
     4  H    0.000620
 Sum of Mulliken atomic spin densities =   1.00000
 Electronic spatial extent (au):  <R**2>=            177.0230
 Charge=              0.0000 electrons
 Dipole moment (field-independent basis, Debye):
    X=              1.3613    Y=              0.1079    Z=              0.5248  Tot=              1.4630
 Quadrupole moment (field-independent basis, Debye-Ang):
   XX=            -26.1260   YY=            -21.0539   ZZ=            -23.6012
   XY=              3.8097   XZ=              0.7510   YZ=              0.7981
 Traceless Quadrupole moment (field-independent basis, Debye-Ang):
   XX=             -2.5323   YY=              2.5398   ZZ=             -0.0075
   XY=              3.8097   XZ=              0.7510   YZ=              0.7981
 Octapole moment (field-independent basis, Debye-Ang**2):
  XXX=              2.2930  YYY=              5.2121  ZZZ=             -0.0016  XYY=              4.9476
  XXY=              2.0012  XXZ=              1.0242  XZZ=              0.1088  YZZ=              1.2204
  YYZ=              0.9176  XYZ=              1.0299
 Hexadecapole moment (field-independent basis, Debye-Ang**3):
 XXXX=           -139.1826 YYYY=            -51.7893 ZZZZ=            -24.9055 XXXY=              8.1052
 XXXZ=              1.5867 YYYX=              6.8237 YYYZ=              1.3249 ZZZX=              0.4185
 ZZZY=              0.5614 XXYY=            -25.6241 XXZZ=            -26.8030 YYZZ=            -13.8921
 XXYZ=              1.5357 YYXZ=              1.2563 ZZXY=              0.4956
 N-N= 1.116114240527D+02 E-N=-2.282526801156D+03  KE= 8.210513164723D+02
                          Isotropic Fermi Contact Couplings
        Atom                 a.u.       MegaHertz       Gauss      10(-4) cm-1
     1  S(33)              0.10144      34.84030      12.43188      11.62147
     2  O(17)              0.02141     -12.97691      -4.63048      -4.32863
     3  O(17)              0.05208     -31.57330     -11.26614     -10.53172
     4  H(1)               0.00046       2.03696       0.72684       0.67946
 --------------------------------------------------------
       Center         ----  Spin Dipole Couplings  ----
                      3XX-RR        3YY-RR        3ZZ-RR
 --------------------------------------------------------
     1   Atom       -1.502730     -1.612637      3.115367
     2   Atom       -0.235857     -0.202281      0.438139
     3   Atom       -0.769875     -0.773125      1.543001
     4   Atom       -0.009514      0.019833     -0.010319
 --------------------------------------------------------
                        XY            XZ            YZ
 --------------------------------------------------------
     1   Atom       -0.005634     -0.078867      0.141306
     2   Atom        0.010556      0.005838     -0.107455
     3   Atom        0.004988      0.064448      0.029609
     4   Atom        0.008620      0.001698      0.004405
 --------------------------------------------------------


 ---------------------------------------------------------------------------------
              Anisotropic Spin Dipole Couplings in Principal Axis System
 ---------------------------------------------------------------------------------

       Atom             a.u.   MegaHertz   Gauss  10(-4) cm-1        Axes

              Baa    -1.6170   -66.294   -23.655   -22.113  0.0290  0.9991 -0.0294
     1 S(33)  Bbb    -1.5040   -61.662   -22.003   -20.568  0.9994 -0.0285  0.0179
              Bcc     3.1209   127.956    45.658    42.681 -0.0171  0.0299  0.9994
 
              Baa    -0.2418    17.494     6.242     5.835  0.8880 -0.4530 -0.0792
     2 O(17)  Bbb    -0.2139    15.481     5.524     5.164  0.4599  0.8768  0.1404
              Bcc     0.4557   -32.975   -11.766   -10.999  0.0059 -0.1611  0.9869
 
              Baa    -0.7769    56.212    20.058    18.750 -0.6263  0.7795  0.0075
     3 O(17)  Bbb    -0.7683    55.596    19.838    18.545  0.7791  0.6262 -0.0297
              Bcc     1.5452  -111.808   -39.896   -37.295  0.0279  0.0128  0.9995
 
              Baa    -0.0121    -6.439    -2.298    -2.148  0.8974 -0.1873 -0.3994
     4 H(1)   Bbb    -0.0108    -5.748    -2.051    -1.917  0.3551 -0.2304  0.9060
              Bcc     0.0228    12.188     4.349     4.065  0.2618  0.9549  0.1403
 

 ---------------------------------------------------------------------------------

 1\1\ CPUSERV-QCEXNOD15\SP\UwB97XD\6-311+G(3df)\H1O2S1(2)\VPEREZ\20-Aug
 -2025\0\\#sp wB97XD/6-311+G(3df)\\Optimizacion del hoso\\0,2\S,0,-0.14
 2843,-0.476008,0.015308\O,0,1.305132,0.262471,-0.04304\O,0,-1.178636,0
 .542438,-0.020037\H,0,1.321521,1.187845,0.242681\\Version=EM64L-G09Rev
 C.01\State=2-A\HF=-549.2202731\S2=0.755415\S2-1=0.\S2A=0.75002\RMSD=6.
 459e-09\Dipole=0.5346981,0.0506376,0.2069553\Quadrupole=-1.9679081,1.9
 733695,-0.0054614,2.7743963,0.5454372,0.6028419\PG=C01 [X(H1O2S1)]\\@


 EDUCATION DOESN'T COST 
           ... IT PAYS!

 -- POSTMARK, UNIV. OF MISSISSIPPI, DEC 78
 Job cpu time:  0 days  0 hours  5 minutes 36.0 seconds.
 File lengths (MBytes):  RWF=     21 Int=      0 D2E=      0 Chk=      2 Scr=      1
 Normal termination of Gaussian 09 at Wed Aug 20 23:00:02 2025.
